
 *******************************************************************************
 *                                                                             *
 *  -------------------------------------                                      *
 *   Amsterdam Density Functional  (ADF)         2007.01   August 20, 2007     *
 *  -------------------------------------                                      *
 *                                               Build 200708271210            *
 *                                                                             *
 *                                                                             *
 *                            =====================                            *
 *                            |                   |                            *
 *                            |     D I R A C     |                            *
 *                            |                   |                            *
 *                            =====================                            *
 *                                                                             *
 *                                                                             *
 *   Online information and documentation:  http://www.scm.com                 *
 *   E-mail:  support@scm.com   info@scm.com                                   *
 *                                                                             *
 *   Scientific publications using ADF results must be properly referenced     *
 *   See the User Manuals (or the web site) for recommended citations          *
 *   The terms and conditions of the End User License Agreement apply to       *
 *   the use of ADF, http://www.scm.com/Sales/LicAgreement.html                *
 *                                                                             *
 *****************************  sgi_itan2_linux  *******************************
 
 DIRAC 2007.01  RunTime: Jul17-2008 23:09:36
1
 PHOSPHORUS ATOM all electron RELATIVISTIC                   
 N J RN H ZN XION ANUC 
 1000    7100.00000000 54.23252343 15.00000000  0.00000000   30.974000
  PH   PHI     EPS        DEL        DELRVR
  0.30  0.30     2500.00  0.00001000  0.00001000
 IDIRC  NC1  NDEBU NPRIN  IPUN IRCOR IWCOR
   1   300     0     0     0     0     0
   XALPHA      XLATTER      RNUC
  0.70000000  0.00000000  0.00000000
   XN   XL   XJ      XE          XZ      XDELL
  1.0  0.0  0.5    -600.000       2.000     0.00000
  2.0  0.0  0.5     -75.000       2.000     0.00000
  2.0  1.0  0.5     -70.000       2.000     0.00000
  2.0  1.0  1.5     -70.000       4.000     0.00000
  3.0  0.0  0.5     -25.000       2.000     0.00000
  3.0  1.0  0.5      -0.250       2.000     0.00000
  3.0  1.0  1.5      -0.250       1.000     0.00000
 ICORP=  0  NPCL=  0  DEMP=0.00  PEPS=0.000000
 R(1)=  0.1000000E-05 D=  0.1018610E+01 RNUC=  0.0000000E+00
 converged at cycle   47  DENSITY AVERAGING    0.3000
  MAXIMUM ERROR IN R.V(R) IS   0.93260246E-05
 Q,EY,EV,EZ,ESUM,ETOT,RHO  0.150000E+02 -0.290161E+02 -0.536820E+03 -0.814855E+03 -0.194417E+03 -0.340688E+03  0.313570E-07


 DIRAC CALCULATION
1                    PHOSPHORUS ATOM all electron RELATIVISTIC


 EXCHANGE COEFFICIENT=  0.7000000           TAIL CORRECTION=  0.           NUCLEAR RADIUS=  0.000E+00
0                       ORBITAL    N    L    J     ELECTRONS     EIGENVALUE                DELTA OF EIGENV.

                          1S1/2  1.0  0.0  0.5     2.000       -0.7640874E+02                 0.4464854E-06
                          2S1/2  2.0  0.0  0.5     2.000       -0.6353640E+01                 0.1266467E-06
                          2P1/2  2.0  1.0  0.5     2.000       -0.4588256E+01                 0.1301272E-06
                          2P3/2  2.0  1.0  1.5     4.000       -0.4554413E+01                 0.1295927E-06
                          3S1/2  3.0  0.0  0.5     2.000       -0.4844206E+00                 0.4236085E-07
                          3P1/2  3.0  1.0  0.5     2.000       -0.1770291E+00                 0.3220646E-07
                          3P3/2  3.0  1.0  1.5     1.000       -0.1750219E+00                 0.3199457E-07


                                        NUCLEAR CHARGE=   15.000000
                            INTEGRAL OF CHARGE DENSITY=   15.000000
                           SUM OF THE ORBITAL ENERGIES=   -194.4169
                                          TOTAL ENERGY=   -340.6884
                                        KINETIC ENERGY=    342.4034
                             NUCLEAR ATTRACTION ENERGY=   -814.8554
                             ELECTRON REPULSION ENERGY=    153.5256
                                       EXCHANGE ENERGY=    -21.7621

 *******************************************************************************

                             D I R A C   E X I T
 NORMAL TERMINATION



 =================
 Timing Statistics
 =================
  
 Total Used :                     CPU=        0.23      System=        0.30     Elapsed=        0.54

 Calls  Section                     ( Mean, Percentage )
 ---------------------------------------------------------------------------------------------------
     2  ><      ................      0.00    0.00             0.00    0.00             0.00    0.00
     1  EXIT PROCEDURE .........      0.23  100.00             0.30  100.00             0.54  100.00


 Currently Open Files (EXIT00)
 ====================

 Unit    Access Format  Status   Type       Ident (file)
 -------------------------------------------------------
   3      SEQ    FORM   TRANSP  NORMAL      LOGFILE
                                          ( logfile )


 Buffered I/O statistics
 =======================
 Memory available:                    536870912
 Number of records fitting in memory:    129055
 Input : 100.0% of                            0  *4k bytes
 Output: 100.0% of                            0  *4k bytes
 Records from serial files evicted:           0
                    others evicted:           0
 Hash table lookups:          0 with          0 conflicts (100.00%)

 ***************************************************************************************************
 (LOGFILE)
 <Jul17-2008> <23:09:36>  DIRAC 2007.01  RunTime: Jul17-2008 23:09:36
 <Jul17-2008> <23:09:36>  NORMAL TERMINATION
 <Jul17-2008> <23:09:37>  END


(INPUT FILE)
Create P  file=/usr/local/Chem-Apps/adf2007.01/atomicdata/ZORA/TZP/P
XC
GGA PBE
End
relativistic ZORA
Corepotentials t12.rel
End Input

 *******************************************************************************
 *                                                                             *
 *  -------------------------------------                                      *
 *   Amsterdam Density Functional  (ADF)         2007.01   August 20, 2007     *
 *  -------------------------------------                                      *
 *                                               Build 200708271210            *
 *                                                                             *
 *                                                                             *
 *                              =================                              *
 *                              |               |                              *
 *                              |     A D F     |                              *
 *                              |               |                              *
 *                              =================                              *
 *                                                                             *
 *                                                                             *
 *   Online information and documentation:  http://www.scm.com                 *
 *   E-mail:  support@scm.com   info@scm.com                                   *
 *                                                                             *
 *   Scientific publications using ADF results must be properly referenced     *
 *   See the User Manuals (or the web site) for recommended citations          *
 *   The terms and conditions of the End User License Agreement apply to       *
 *   the use of ADF, http://www.scm.com/Sales/LicAgreement.html                *
 *                                                                             *
 *****************************  sgi_itan2_linux  *******************************
 
 ADF 2007.01  RunTime: Jul17-2008 23:09:37
 Phosphorus (TZP)



 ===========================
 A T T A C H E D   F I L E S
 ===========================
  
 CREATE - Data File:    /usr/local/Chem-Apps/adf2007.01/atomicdata/ZORA/TZP/P
                        Phosphorus (TZP)
 Core Potentials:
         file : t12.rel



 ===============================
 M O D E L   P A R A M E T E R S
 ===============================
  
 DENSITY FUNCTIONAL POTENTIAL (scf)
    LDA:                               VWN                                      
    Gradient Corrections:              PBEc PBEx                               == Not Default ==

 SPIN  (restricted / unrestr.)
    Molecule:                          Restricted                               

 OTHER ASPECTS
    Relativistic Corrections:          scalar (ZORA,SAPA)                       *** SPECIAL ***
    Core Treatment:                    Frozen Orbital(s)                        

    Electric Field:                    ---                                      

    Hyperfine or Zeeman Interaction:   ---                                      



 =====================================
 S Y M M E T R Y ,   E L E C T R O N S
 =====================================
  
 Symmetry: ATOM

 Irreducible Representations, including subspecies
 -------------------------------------------------
 S
 P:x  P:y  P:z
 D:z2  D:x2-y2  D:xy  D:xz  D:yz
 F:z3  F:z  F:xyz  F:z2x  F:z2y  F:x  F:y


 Configuration of Valence Electrons
 ==================================

          Occupation Numbers
          -------------------------------------------------
 S        3*2
 P        6 3
 D        0
 F        0
          -------------------------------------------------

 Total:   15

 Net Charge: 0 (Nuclei minus Electrons)

 Preset values for MO occupations will be applied through SCF cycle no. 1000000
 Thereafter, the program will assign electrons to MOs that are spatially
 similar to the occupied MOs in a "reference" cycle ("KeepOrbitals").
 The reference cycle is always the PREVIOUS cycle: it will evolve with
 the SCF procedure.



 ================================
 (Slater-type)  F U N C T I O N S  ***  (Basis and Fit)  ***
 ================================
  

 Atom Type    1  (P)
 ==============

 Valence Basis Sets:  13
 -----------------------
   1 S   18.000000
   1 S   13.350000
   2 S    5.600000
   2 S    4.050000
   2 P    7.450000
   2 P    4.100000
   3 S    2.700000
   3 S    1.850000
   3 S    1.300000
   3 P    2.300000
   3 P    1.350000
   3 P    0.850000
   3 D    1.900000

 Charge Fitting Sets (for the computation of the Coulomb Potential):  30
 -----------------------------------------------------------------------
   1 S   36.000000
   1 S   21.450000
   2 S   23.670000
   2 S   15.860000
   3 S   15.600000
   3 S   11.130000
   3 S    7.940000
   4 S    7.490000
   4 S    5.560000
   4 S    4.130000
   5 S    3.810000
   5 S    2.910000
   5 S    2.230000
   5 S    1.700000
   2 P   25.450000
   3 P   18.490000
   4 P   13.440000
   4 P    7.810000
   5 P    5.730000
   5 P    3.510000
   5 P    2.150000
   3 D   19.350000
   4 D   13.230000
   4 D    7.250000
   5 D    5.040000
   5 D    2.930000
   5 D    1.700000
   4 F    5.000000
   4 F    3.000000
   5 G    3.750000


 BAS: List of all Elementary Cartesian Basis Functions
 =====================================================

 The numbering in the list below (to the right of the function characteristics) is referred
 to in print-outs of MO eigenvectors and Mulliken populations in the BAS representation
 (as contrasted to the SFO representation).

 Notes:
 1. The functions are characterized by a polynomial prefactor (powers of x,y,z and r) and
    an exponential decay factor alpha.
 2. Since the basis sets are specific for an atom TYPE, the individual functions occur on
    all atoms of that type.
 3. The word 'Core' in the left margin signals that it is a Core Function (CF) : not a
    degree of freedom in the valence set, but only used to ensure orthogonalization of
    the other valence basis functions on the frozen Core Orbitals.


 (power of) X  Y  Z  R     Alpha  on Atom
            ==========     =====     ==========

 P                                    1
                                  ---------------------------------------------------------------------------
            0  0  0  0    18.000      1
            0  0  0  0    13.350      2
            0  0  0  1     5.600      3
            0  0  0  1     4.050      4
            1  0  0  0     7.450      5
            0  1  0  0     7.450      6
            0  0  1  0     7.450      7
            1  0  0  0     4.100      8
            0  1  0  0     4.100      9
            0  0  1  0     4.100     10
            0  0  0  2     2.700     11
            0  0  0  2     1.850     12
            0  0  0  2     1.300     13
            1  0  0  1     2.300     14
            0  1  0  1     2.300     15
            0  0  1  1     2.300     16
            1  0  0  1     1.350     17
            0  1  0  1     1.350     18
            0  0  1  1     1.350     19
            1  0  0  1     0.850     20
            0  1  0  1     0.850     21
            0  0  1  1     0.850     22
            2  0  0  0     1.900     23
            1  1  0  0     1.900     24
            1  0  1  0     1.900     25
            0  2  0  0     1.900     26
            0  1  1  0     1.900     27
            0  0  2  0     1.900     28


 BAS: List of all Elementary Cartesian Basis Functions
 =====================================================

 The numbering in the list below (to the right of the function characteristics) is referred
 to in print-outs of MO eigenvectors and Mulliken populations in the BAS representation
 (as contrasted to the SFO representation).

 Notes:
 1. The functions are characterized by a polynomial prefactor (powers of x,y,z and r) and
    an exponential decay factor alpha.
 2. Since the basis sets are specific for an atom TYPE, the individual functions occur on
    all atoms of that type.
 3. The word 'Core' in the left margin signals that it is a Core Function (CF) : not a
    degree of freedom in the valence set, but only used to ensure orthogonalization of
    the other valence basis functions on the frozen Core Orbitals.


 (power of) X  Y  Z  R     Alpha  on Atom
            ==========     =====     ==========

 P                                    1
                                  ---------------------------------------------------------------------------
            0  0  0  0    18.000      1
            0  0  0  0    13.350      2
            0  0  0  1     5.600      3
            0  0  0  1     4.050      4
            1  0  0  0     7.450      5
            0  1  0  0     7.450      6
            0  0  1  0     7.450      7
            1  0  0  0     4.100      8
            0  1  0  0     4.100      9
            0  0  1  0     4.100     10
            0  0  0  2     2.700     11
            0  0  0  2     1.850     12
            0  0  0  2     1.300     13
            1  0  0  1     2.300     14
            0  1  0  1     2.300     15
            0  0  1  1     2.300     16
            1  0  0  1     1.350     17
            0  1  0  1     1.350     18
            0  0  1  1     1.350     19
            1  0  0  1     0.850     20
            0  1  0  1     0.850     21
            0  0  1  1     0.850     22
            2  0  0  0     1.900     23
            1  1  0  0     1.900     24
            1  0  1  0     1.900     25
            0  2  0  0     1.900     26
            0  1  1  0     1.900     27
            0  0  2  0     1.900     28
1
 ***************************************************************************************************



                                              ***********************
                                              *  T E C H N I C A L  *
                                              ***********************
  



 =============================================================
 P A R A L L E L I Z A T I O N  and  V E C T O R I Z A T I O N
 =============================================================
  
 Nr of parallel processes:                                1
 Internal max. (compile-time) nr of processes:          128
 Maximum vector length in NumInt loops:                 128



 ===============
 I O  vs.  C P U  ***  (store numerical data on disk or recalculate)  ***
 ===============
  
 Basis functions:   recalculate when needed
 Fit functions:     recalculate when needed

 IO buffersize (Mb):                                    512.000000



 =====================
 S C F   U P D A T E S
 =====================
  
 Max. nr. of cycles:                               100
 Convergence criterion:                              0.0000000100
   secondary criterion:                              0.0000000100

 Mix parameter (when DIIS does not apply):           0.2000000000
 Special mix parameter for the first cycle:          1.0000000000


 DIIS (Direct Inversion in Iteration Space)
    Replace damping when SCF Error is below:         0.5000000000
    Apply anyway after SCF cycle:
                                                     5
    (Max.) nr. of expansion vectors:                10

    Upperbound on expansion coefficients:            5.0000000000
    (when exceeded, IterationSpace is re-built)
    2nd Upperbound on coefficients:                 25.0000000000
    (when exceeded, simple damping will be used)
 Automatic ElectronSmearing (in case of problematic SCF convergence) disabled



 =================
 P R E C I S I O N  ***  (General: NumInt, NeglectFunctionTails, ...)  ***
 =================
  

 NumInt:           Target precision:                10.0000000000
 -------           Initial precision:               10.0000000000
                   Min. precision (optimization):   10.0000000000

 Neglect Functions:          Basis functions:        0.1000000000E-11
 ------------------          Fit functions:          0.1000000000E-11



 ===========================
 L I N E A R   S C A L I N G
 ===========================
  

 Cut-off radii density fit:                        0.1000000000E-13
 Overlap cut-off criterion AO matrix elements:     0.1000000000E-11
 Cut-offs for Coulomb potential and fitted density:0.1000000000E-13
 Cut-off criterion for Coulomb multipole terms:    0.1000000000E-13
1
 ***************************************************************************************************



                                            ***************************
                                            *  C O M P U T A T I O N  *
                                            ***************************
  

 Number of elements of the density matrix on this node (used, total):       406       406



 ====================================================
 Numerical Integration : Voronoi Polyhedra (Te Velde)  ***  (parameters, tests)  ***
 ====================================================
  
 General Accuracy Parameter :                         10.00

 Symmetry used in the points section:  ATOM  


 Summary of the Symmetry Unique Points:
 --------------------------------------
    Nr. of used Symmetry Operators                     1

    Points in the Atomic Spheres                      63
    Points in the Atomic Polyhedra                     0
    Points in the Outer Region                         0
    ----------------------------------------------------
    Total                                             63

    Sum of Weights                                 58501.056183

 Total nr. of points:         63
 Nr. of blocks:                1
 Block length:                63
 Nr. of dummy points:          0


 Test of Precision of the Numerical Integration Grid
 ===================================================

 Integral of the Total Core Density:                   0.00000000000000



 =====
 S C F
 =====
  

 CYCLE    1
 orbitals (Q,E):
 ---------------
 S :1...7            ( 2.00  -114.4757)  ( 2.00   -28.4370)  ( 2.00   -12.6629)  ( 0.00    -7.0884)
                     ( 0.00    -4.4444)  ( 0.00    -2.9754)  ( 0.00   125.4759)
 P :1...5            ( 6.00   -28.5572)  ( 3.00   -12.4701)  ( 0.00    -6.9262)  ( 0.00    -4.2326)
                     ( 0.00    -2.5086)
 D :1...1            ( 0.00    -7.7851)

 CYCLE    2
 d-Pmat  mean:  0.37E+01
 imax=      3: -0.27E+02
 orbitals (Q,E):
 ---------------
 S :1...4            ( 2.00   -64.1127)  ( 2.00    -1.6007)  ( 2.00     0.1043)  ( 0.00     0.6928)
 P :1...3            ( 6.00     0.0288)  ( 3.00     0.1504)  ( 0.00     0.6544)
 D :1...1            ( 0.00     1.3399)

 CYCLE    3
 d-Pmat  mean:  0.11E+01
 imax=     12: -0.76E+01
 orbitals (Q,E):
 ---------------
 S :1...4            ( 2.00   -69.1839)  ( 2.00    -3.7676)  ( 2.00    -0.1589)  ( 0.00     0.2990)
 P :1...3            ( 6.00    -1.7784)  ( 3.00    -0.0002)  ( 0.00     0.2385)
 D :1...1            ( 0.00     0.7686)

 CYCLE    4
 d-Pmat  mean:  0.22E+00
 imax=     13: -0.16E+01
 orbitals (Q,E):
 ---------------
 S :1...4            ( 2.00   -71.6732)  ( 2.00    -4.7468)  ( 2.00    -0.3233)  ( 0.00     0.1811)
 P :1...3            ( 6.00    -2.7739)  ( 3.00    -0.0856)  ( 0.00     0.1330)
 D :1...1            ( 0.00     0.5549)

 CYCLE    5
 d-Pmat  mean:  0.20E+00
 imax=      3:  0.76E+00
 orbitals (Q,E):
 ---------------
 S :1...4            ( 2.00   -76.7505)  ( 2.00    -6.5042)  ( 2.00    -0.5128)  ( 0.00     0.1311)
 P :1...3            ( 6.00    -4.6897)  ( 3.00    -0.1960)  ( 0.00     0.0996)
 D :1...1            ( 0.00     0.3831)

 CYCLE    6
 d-Pmat  mean:  0.12E-01
 imax=     12: -0.59E-01
 orbitals (Q,E):
 ---------------
 S :1...4            ( 2.00   -76.5236)  ( 2.00    -6.3568)  ( 2.00    -0.5002)  ( 0.00     0.1182)
 P :1...3            ( 6.00    -4.5336)  ( 3.00    -0.1919)  ( 0.00     0.0890)
 D :1...1            ( 0.00     0.3964)

 CYCLE    7
 d-Pmat  mean:  0.48E-02
 imax=     12:  0.22E-01
 orbitals (Q,E):
 ---------------
 S :1...4            ( 2.00   -76.5714)  ( 2.00    -6.3969)  ( 2.00    -0.5177)  ( 0.00     0.1111)
 P :1...3            ( 6.00    -4.5745)  ( 3.00    -0.2059)  ( 0.00     0.0840)
 D :1...1            ( 0.00     0.3785)

 CYCLE    8
 d-Pmat  mean:  0.93E-03
 imax=     12: -0.46E-02
 orbitals (Q,E):
 ---------------
 S :1...4            ( 2.00   -76.5644)  ( 2.00    -6.3901)  ( 2.00    -0.5140)  ( 0.00     0.1127)
 P :1...3            ( 6.00    -4.5678)  ( 3.00    -0.2028)  ( 0.00     0.0852)
 D :1...1            ( 0.00     0.3823)

 CYCLE    9
 d-Pmat  mean:  0.88E-05
 imax=     12: -0.38E-04
 orbitals (Q,E):
 ---------------
 S :1...4            ( 2.00   -76.5643)  ( 2.00    -6.3901)  ( 2.00    -0.5140)  ( 0.00     0.1127)
 P :1...3            ( 6.00    -4.5677)  ( 3.00    -0.2028)  ( 0.00     0.0852)
 D :1...1            ( 0.00     0.3824)

 CYCLE   10
 d-Pmat  mean:  0.64E-06
 imax=     12:  0.34E-05
 orbitals (Q,E):
 ---------------
 S :1...4            ( 2.00   -76.5643)  ( 2.00    -6.3901)  ( 2.00    -0.5140)  ( 0.00     0.1127)
 P :1...3            ( 6.00    -4.5677)  ( 3.00    -0.2028)  ( 0.00     0.0852)
 D :1...1            ( 0.00     0.3824)

 CYCLE   11
 d-Pmat  mean:  0.47E-08
 imax=     12:  0.27E-07
 orbitals (Q,E):
 ---------------
 S :1...4            ( 2.00   -76.5643)  ( 2.00    -6.3901)  ( 2.00    -0.5140)  ( 0.00     0.1127)
 P :1...3            ( 6.00    -4.5677)  ( 3.00    -0.2028)  ( 0.00     0.0852)
 D :1...1            ( 0.00     0.3824)

 CYCLE   12
 d-Pmat  mean:  0.15E-09
 imax=     12:  0.83E-09
 orbitals (Q,E):
 ---------------
 S :1...4            ( 2.00   -76.5643)  ( 2.00    -6.3901)  ( 2.00    -0.5140)  ( 0.00     0.1127)
 P :1...3            ( 6.00    -4.5677)  ( 3.00    -0.2028)  ( 0.00     0.0852)
 D :1...1            ( 0.00     0.3824)

 SCF CONVERGED

 CYCLE   13
1
 ***************************************************************************************************



                                                *******************
                                                *  R E S U L T S  *
                                                *******************
  
 *** Setting up for NEW gradients in focky
 *** Using FIT density in focky

 Scaled ZORA Orbital Energies, per Irrep and Spin:
 =================================================
                        Occup              E (au)              E (eV)       Diff (eV) with prev. cycle
                        -----      --------------------        ------       --------------------------
 S
               1        2.000     -0.76564316221918E+02     -2083.421              -1.24E-11
               2        2.000     -0.63900810930312E+01      -173.883              -4.50E-12
               3        2.000     -0.51397737570681E+00       -13.986               6.15E-12
               4        0.000      0.11274790781543E+00         3.068
               5        0.000      0.13183251578973E+01        35.873
               6        0.000      0.92848542126527E+01       252.654
               7        0.000      0.15879831573563E+03      4321.122
 P
               1        6.000     -0.45677008366227E+01      -124.293              -6.38E-12
               2        3.000     -0.20280697430898E+00        -5.519               5.10E-12
               3        0.000      0.85201658736727E-01         2.318
               4        0.000      0.86478742165780E+00        23.532
               5        0.000      0.10260404960610E+02       279.200
 D
               1        0.000      0.38235145138953E+00        10.404


 Partially Occupied:
               2 P                -0.20280697430898E+00
  
 HOMO :        3 S                -0.51397737570681E+00
 LUMO :        3 P                 0.85201658736727E-01
  


 Orbital Energies, all Irreps
 ========================================

 Irrep        no.  (spin)   Occup              E (au)                E (eV)
 ---------------------------------------------------------------------------
 S             1             2.00       -0.76564316221918E+02     -2083.4210
 S             2             2.00       -0.63900810930312E+01      -173.8830
 P             1             6.00       -0.45677008366227E+01      -124.2935
 S             3             2.00       -0.51397737570681E+00       -13.9860
 P             2             3.00       -0.20280697430898E+00        -5.5187
 P             3             0.00        0.85201658736727E-01         2.3185
 S             4             0.00        0.11274790781543E+00         3.0680
 D             1             0.00        0.38235145138953E+00        10.4043
 P             4             0.00        0.86478742165780E+00        23.5321
 S             5             0.00        0.13183251578973E+01        35.8735
 S             6             0.00        0.92848542126527E+01       252.6537
 P             5             0.00        0.10260404960610E+02       279.1998
 S             7             0.00        0.15879831573563E+03      4321.1220


 Scaled ZORA Orbital Energies of the Core Orbitals:
 ==================================================

 (Note that the atoms are grouped by atomtype, see the labels, and may hence NOT be in input order)

 AtomType  Orbital  Atom                   E (au)                        E (eV)
 --------  -------  ----           --------------------        ----------------



 =======================================
 M U L L I K E N   P O P U L A T I O N S
 =======================================
  
 The survey below gives for each atom:
 a) the total charge (Z minus electrons)
 b) the net spin polarization (nr of electrons spin-A minus spin-B)
 c) for each spin the atomic electron valence density (integrated) per L-value.

 Atom              Charge    Spin density          S         P         D         F
 ----              ------    ------------       ------    ------    ------    ------
 1 P               0.0000                       6.0000    9.0000    0.0000    0.0000

 Populations of individual BAS functions
 ----------------------------------------
 1 P            0.5735  1.3866  1.4214  0.5938  0.7960  0.7960  0.7960  1.2047  1.2047  1.2047
                0.5385  1.1649  0.3213  0.2993  0.2993  0.2993  0.5969  0.5969  0.5969  0.1031
                0.1031  0.1031  0.0000  0.0000  0.0000  0.0000  0.0000  0.0000

 Gross Charges per Atom (Z minus electrons)
 ==========================================
             0.0000
 Net Total:  0.00000000


 Atom-Atom Population Matrix (off-diagonal elements not doubled)
 ===============================================================

     1 :    15.0000



 =============
 Dipole Moment  ***  (Debye)  ***
 =============
  
 Vector   :         0.00000000      0.00000000      0.00000000
 Magnitude:         0.00000000

 This molecular dipole moment is calculated with analytic integration



 =========================================
 Quadrupole Moment (Buckingham convention)  ***  (a.u.)  ***
 =========================================
  
      quad-xx        quad-xy        quad-xz        quad-yy        quad-yz        quad-zz
      0.00000000     0.00000000     0.00000000     0.00000000     0.00000000     0.00000000

 This molecular quadrupole moment is calculated with analytic integration



 ===============================================================================
 Electrostatic potential at the Nuclei due to valence electrons and other nuclei
 ===============================================================================
  
         Atom                  Potential
         ----                  ---------
     1)   P                  54.40869451
 
 
 ========================
 No memory problems found
 ========================
 
 Maximum number of active allocate calls:         369
 
 *******************************************************************************

                             A D F   E X I T
 NORMAL TERMINATION



 =================
 Timing Statistics
 =================
  
 Total Used :                     CPU=        0.29      System=        0.31     Elapsed=        0.62

 Calls  Section                     ( Mean, Percentage )
 ---------------------------------------------------------------------------------------------------
     3  ><      ................      0.00    0.33             0.00    0.00             0.00    0.27
     1  INIT    ................      0.01    2.67             0.00    0.31             0.02    2.89
     1  GEOMET  ................      0.02    7.00             0.30   95.92             0.32   51.35
     1  INPUTA  ................      0.00    1.00             0.00    0.31             0.01    1.57
     1  MAINSY  ................      0.01    4.00             0.00    0.00             0.01    1.76
     1  SYMFIT  ................      0.00    0.00             0.00    0.00             0.00    0.10
     1  CORORT  ................      0.00    0.33             0.00    0.00             0.00    0.05
     1  SYMORB  ................      0.00    0.67             0.00    0.00             0.00    0.32
     1  FITINT  ................      0.01    3.33             0.00    0.00             0.01    1.97
     1  CLSMAT  ................      0.00    0.00             0.00    0.00             0.00    0.07
     1  ORTHON  ................      0.00    1.00             0.00    0.00             0.00    0.40
     1  ETALOW  ................      0.00    0.33             0.00    0.00             0.00    0.21
     1  GENPT   ................      0.01    5.00             0.00    0.00             0.01    2.31
     1  PTBAS   ................      0.00    1.00             0.00    0.63             0.00    0.76
    13  FOCKY   ................      0.01   40.33             0.00    0.94             0.01   19.51
    13  FOCKTR  ................      0.00    2.67             0.00    0.00             0.00    1.07
    13  FOCKNM  ................      0.00    0.00             0.00    0.00             0.00    0.10
    13  SDIIS   ................      0.00    2.67             0.00    0.00             0.00    1.16
    13  EMERGE  ................      0.00   17.00             0.00    0.63             0.00    8.58
     1  COREPS  ................      0.01    2.33             0.00    0.00             0.01    1.02
     1  POPAN   ................      0.00    1.67             0.00    0.00             0.00    0.74
     1  DEBYE   ................      0.00    0.33             0.00    0.00             0.00    0.19
     1  QMPOT   ................      0.02    5.33             0.00    0.31             0.02    2.63
     1  EXIT PROCEDURE .........      0.00    1.00             0.00    0.94             0.01    0.98


 Currently Open Files (EXIT00)
 ====================

 Unit    Access Format  Status   Type       Ident (file)
 -------------------------------------------------------
   3      SEQ    FORM   TRANSP  NORMAL      LOGFILE
                                          ( logfile )


 Buffered I/O statistics
 =======================
 Memory available:                    536870912
 Number of records fitting in memory:    129055
 Input :   1.3% of                         4709  *4k bytes
 Output:   8.4% of                         2359  *4k bytes
 Records from serial files evicted:           0
                    others evicted:           0
 Hash table lookups:      19044 with          0 conflicts (  0.00%)

 ***************************************************************************************************
 (LOGFILE)
 <Jul17-2008> <23:09:36>  DIRAC 2007.01  RunTime: Jul17-2008 23:09:36
 <Jul17-2008> <23:09:36>  NORMAL TERMINATION
 <Jul17-2008> <23:09:37>  END
 <Jul17-2008> <23:09:37>  ADF 2007.01  RunTime: Jul17-2008 23:09:37
 <Jul17-2008> <23:09:37>  Phosphorus (TZP)
 <Jul17-2008> <23:09:37>  RunType   : CREATE
 <Jul17-2008> <23:09:37>  Net Charge: 0 (Nuclei minus Electrons)
 <Jul17-2008> <23:09:37>  Symmetry  : ATOM
 <Jul17-2008> <23:09:37>  >>>> CORORT
 <Jul17-2008> <23:09:37>  >>>> FITINT
 <Jul17-2008> <23:09:37>  >>>> CLSMAT
 <Jul17-2008> <23:09:37>  >>>> ORTHON
 <Jul17-2008> <23:09:37>  >>>> GENPT
 <Jul17-2008> <23:09:37>  Acc.Num.Int.=  10.000
 <Jul17-2008> <23:09:37>  Block Length=  63
 <Jul17-2008> <23:09:37>  >>>> PTBAS
 <Jul17-2008> <23:09:37>  >>>> CYCLE
 <Jul17-2008> <23:09:37>    1
 <Jul17-2008> <23:09:37>    2  ErrMat  26.75585909  MaxEl -9.36187002
 <Jul17-2008> <23:09:37>    3  ErrMat  18.31757679  MaxEl -8.17180015
 <Jul17-2008> <23:09:37>    4  ErrMat  10.50126628  MaxEl  3.55547725
 <Jul17-2008> <23:09:37>    5  ErrMat   6.71747415  MaxEl -2.36156888
 <Jul17-2008> <23:09:37>    6  ErrMat   0.24891060  MaxEl  0.08244325
 <Jul17-2008> <23:09:37>    7  ErrMat   0.04631978  MaxEl  0.02005113
 <Jul17-2008> <23:09:37>    8  ErrMat   0.00742209  MaxEl -0.00350404
 <Jul17-2008> <23:09:37>    9  ErrMat   0.00013089  MaxEl  0.00004700
 <Jul17-2008> <23:09:37>   10  ErrMat   0.00000395  MaxEl -0.00000179
 <Jul17-2008> <23:09:37>   11  ErrMat   0.00000006  MaxEl  0.00000002
 <Jul17-2008> <23:09:37>   12  ErrMat   0.00000000  MaxEl  0.00000000
 <Jul17-2008> <23:09:37>  SCF converged
 <Jul17-2008> <23:09:38>   13  ErrMat   0.00000000  MaxEl  0.00000000
 <Jul17-2008> <23:09:38>   Solutions with partially occupied orbitals may not be
 <Jul17-2008> <23:09:38>   lowest in energy. You might consider lowering the
 <Jul17-2008> <23:09:38>   symmetry in the input and explicitly specifying integer
 <Jul17-2008> <23:09:38>   occupations. In that case always check that you obtain
 <Jul17-2008> <23:09:38>   an aufbau solution.
 <Jul17-2008> <23:09:38>  >>>> COREPS
 <Jul17-2008> <23:09:38>  >>>> POPAN
 <Jul17-2008> <23:09:38>  >>>> DEBYE
 <Jul17-2008> <23:09:38>  NORMAL TERMINATION
 <Jul17-2008> <23:09:38>  END

 *******************************************************************************
 *                                                                             *
 *  -------------------------------------                                      *
 *   Amsterdam Density Functional  (ADF)         2007.01   August 20, 2007     *
 *  -------------------------------------                                      *
 *                                               Build 200708271210            *
 *                                                                             *
 *                                                                             *
 *                            =====================                            *
 *                            |                   |                            *
 *                            |     D I R A C     |                            *
 *                            |                   |                            *
 *                            =====================                            *
 *                                                                             *
 *                                                                             *
 *   Online information and documentation:  http://www.scm.com                 *
 *   E-mail:  support@scm.com   info@scm.com                                   *
 *                                                                             *
 *   Scientific publications using ADF results must be properly referenced     *
 *   See the User Manuals (or the web site) for recommended citations          *
 *   The terms and conditions of the End User License Agreement apply to       *
 *   the use of ADF, http://www.scm.com/Sales/LicAgreement.html                *
 *                                                                             *
 *****************************  sgi_itan2_linux  *******************************
 
 DIRAC 2007.01  RunTime: Jul17-2008 23:09:38
1
 HYDROGEN ATOM RELATIVISTIC                                  
 N J RN H ZN XION ANUC 
 1000    1100.00000000 54.23252343  1.00000000  0.00000000    1.008100
  PH   PHI     EPS        DEL        DELRVR
  0.30  0.30     2500.00  0.00001000  0.00001000
 IDIRC  NC1  NDEBU NPRIN  IPUN IRCOR IWCOR
   1   300     0     0     0     0     0
   XALPHA      XLATTER      RNUC
  0.70000000  0.00000000  0.00000000
   XN   XL   XJ      XE          XZ      XDELL
  1.0  0.0  0.5      -1.000       1.000     0.00000
 ICORP=  0  NPCL=  0  DEMP=0.00  PEPS=0.000000
 R(1)=  0.1000000E-05 D=  0.1018610E+01 RNUC=  0.0000000E+00
 converged at cycle   32  DENSITY AVERAGING    0.2400
  MAXIMUM ERROR IN R.V(R) IS   0.79425945E-05
 Q,EY,EV,EZ,ESUM,ETOT,RHO  0.100000E+01 -0.266614E+00 -0.619969E+00 -0.910779E+00 -0.203940E+00 -0.415998E+00  0.336911E-11


 DIRAC CALCULATION
1                    HYDROGEN ATOM RELATIVISTIC


 EXCHANGE COEFFICIENT=  0.7000000           TAIL CORRECTION=  0.           NUCLEAR RADIUS=  0.000E+00
0                       ORBITAL    N    L    J     ELECTRONS     EIGENVALUE                DELTA OF EIGENV.

                          1S1/2  1.0  0.0  0.5     1.000       -0.2039396E+00                 0.2610045E-06


                                        NUCLEAR CHARGE=    1.000000
                            INTEGRAL OF CHARGE DENSITY=    1.000000
                           SUM OF THE ORBITAL ENERGIES=     -0.2039
                                          TOTAL ENERGY=     -0.4160
                                        KINETIC ENERGY=      0.4160
                             NUCLEAR ATTRACTION ENERGY=     -0.9108
                             ELECTRON REPULSION ENERGY=      0.2787
                                       EXCHANGE ENERGY=     -0.2000

 *******************************************************************************

                             D I R A C   E X I T
 NORMAL TERMINATION



 =================
 Timing Statistics
 =================
  
 Total Used :                     CPU=        0.09      System=        0.30     Elapsed=        0.40

 Calls  Section                     ( Mean, Percentage )
 ---------------------------------------------------------------------------------------------------
     2  ><      ................      0.00    0.00             0.00    0.00             0.00    0.00
     1  EXIT PROCEDURE .........      0.09  100.00             0.30  100.00             0.40  100.00


 Currently Open Files (EXIT00)
 ====================

 Unit    Access Format  Status   Type       Ident (file)
 -------------------------------------------------------
   3      SEQ    FORM   TRANSP  NORMAL      LOGFILE
                                          ( logfile )


 Buffered I/O statistics
 =======================
 Memory available:                    536870912
 Number of records fitting in memory:    129055
 Input : 100.0% of                            0  *4k bytes
 Output: 100.0% of                            0  *4k bytes
 Records from serial files evicted:           0
                    others evicted:           0
 Hash table lookups:          0 with          0 conflicts (100.00%)

 ***************************************************************************************************
 (LOGFILE)
 <Jul17-2008> <23:09:36>  DIRAC 2007.01  RunTime: Jul17-2008 23:09:36
 <Jul17-2008> <23:09:36>  NORMAL TERMINATION
 <Jul17-2008> <23:09:37>  END
 <Jul17-2008> <23:09:37>  ADF 2007.01  RunTime: Jul17-2008 23:09:37
 <Jul17-2008> <23:09:37>  Phosphorus (TZP)
 <Jul17-2008> <23:09:37>  RunType   : CREATE
 <Jul17-2008> <23:09:37>  Net Charge: 0 (Nuclei minus Electrons)
 <Jul17-2008> <23:09:37>  Symmetry  : ATOM
 <Jul17-2008> <23:09:37>  >>>> CORORT
 <Jul17-2008> <23:09:37>  >>>> FITINT
 <Jul17-2008> <23:09:37>  >>>> CLSMAT
 <Jul17-2008> <23:09:37>  >>>> ORTHON
 <Jul17-2008> <23:09:37>  >>>> GENPT
 <Jul17-2008> <23:09:37>  Acc.Num.Int.=  10.000
 <Jul17-2008> <23:09:37>  Block Length=  63
 <Jul17-2008> <23:09:37>  >>>> PTBAS
 <Jul17-2008> <23:09:37>  >>>> CYCLE
 <Jul17-2008> <23:09:37>    1
 <Jul17-2008> <23:09:37>    2  ErrMat  26.75585909  MaxEl -9.36187002
 <Jul17-2008> <23:09:37>    3  ErrMat  18.31757679  MaxEl -8.17180015
 <Jul17-2008> <23:09:37>    4  ErrMat  10.50126628  MaxEl  3.55547725
 <Jul17-2008> <23:09:37>    5  ErrMat   6.71747415  MaxEl -2.36156888
 <Jul17-2008> <23:09:37>    6  ErrMat   0.24891060  MaxEl  0.08244325
 <Jul17-2008> <23:09:37>    7  ErrMat   0.04631978  MaxEl  0.02005113
 <Jul17-2008> <23:09:37>    8  ErrMat   0.00742209  MaxEl -0.00350404
 <Jul17-2008> <23:09:37>    9  ErrMat   0.00013089  MaxEl  0.00004700
 <Jul17-2008> <23:09:37>   10  ErrMat   0.00000395  MaxEl -0.00000179
 <Jul17-2008> <23:09:37>   11  ErrMat   0.00000006  MaxEl  0.00000002
 <Jul17-2008> <23:09:37>   12  ErrMat   0.00000000  MaxEl  0.00000000
 <Jul17-2008> <23:09:37>  SCF converged
 <Jul17-2008> <23:09:38>   13  ErrMat   0.00000000  MaxEl  0.00000000
 <Jul17-2008> <23:09:38>   Solutions with partially occupied orbitals may not be
 <Jul17-2008> <23:09:38>   lowest in energy. You might consider lowering the
 <Jul17-2008> <23:09:38>   symmetry in the input and explicitly specifying integer
 <Jul17-2008> <23:09:38>   occupations. In that case always check that you obtain
 <Jul17-2008> <23:09:38>   an aufbau solution.
 <Jul17-2008> <23:09:38>  >>>> COREPS
 <Jul17-2008> <23:09:38>  >>>> POPAN
 <Jul17-2008> <23:09:38>  >>>> DEBYE
 <Jul17-2008> <23:09:38>  NORMAL TERMINATION
 <Jul17-2008> <23:09:38>  END
 <Jul17-2008> <23:09:38>  DIRAC 2007.01  RunTime: Jul17-2008 23:09:38
 <Jul17-2008> <23:09:38>  NORMAL TERMINATION
 <Jul17-2008> <23:09:38>  END


(INPUT FILE)
Create H  file=/usr/local/Chem-Apps/adf2007.01/atomicdata/ZORA/TZP/H
XC
GGA PBE
End
relativistic ZORA
Corepotentials t12.rel
End Input

 *******************************************************************************
 *                                                                             *
 *  -------------------------------------                                      *
 *   Amsterdam Density Functional  (ADF)         2007.01   August 20, 2007     *
 *  -------------------------------------                                      *
 *                                               Build 200708271210            *
 *                                                                             *
 *                                                                             *
 *                              =================                              *
 *                              |               |                              *
 *                              |     A D F     |                              *
 *                              |               |                              *
 *                              =================                              *
 *                                                                             *
 *                                                                             *
 *   Online information and documentation:  http://www.scm.com                 *
 *   E-mail:  support@scm.com   info@scm.com                                   *
 *                                                                             *
 *   Scientific publications using ADF results must be properly referenced     *
 *   See the User Manuals (or the web site) for recommended citations          *
 *   The terms and conditions of the End User License Agreement apply to       *
 *   the use of ADF, http://www.scm.com/Sales/LicAgreement.html                *
 *                                                                             *
 *****************************  sgi_itan2_linux  *******************************
 
 ADF 2007.01  RunTime: Jul17-2008 23:09:38
 Hydrogen (TZP)



 ===========================
 A T T A C H E D   F I L E S
 ===========================
  
 CREATE - Data File:    /usr/local/Chem-Apps/adf2007.01/atomicdata/ZORA/TZP/H
                        Hydrogen (TZP)
 Core Potentials:
         file : t12.rel



 ===============================
 M O D E L   P A R A M E T E R S
 ===============================
  
 DENSITY FUNCTIONAL POTENTIAL (scf)
    LDA:                               VWN                                      
    Gradient Corrections:              PBEc PBEx                               == Not Default ==

 SPIN  (restricted / unrestr.)
    Molecule:                          Restricted                               

 OTHER ASPECTS
    Relativistic Corrections:          scalar (ZORA,SAPA)                       *** SPECIAL ***
    Core Treatment:                    Frozen Orbital(s)                        

    Electric Field:                    ---                                      

    Hyperfine or Zeeman Interaction:   ---                                      



 =====================================
 S Y M M E T R Y ,   E L E C T R O N S
 =====================================
  
 Symmetry: ATOM

 Irreducible Representations, including subspecies
 -------------------------------------------------
 S
 P:x  P:y  P:z
 D:z2  D:x2-y2  D:xy  D:xz  D:yz
 F:z3  F:z  F:xyz  F:z2x  F:z2y  F:x  F:y


 Configuration of Valence Electrons
 ==================================

          Occupation Numbers
          -------------------------------------------------
 S        1
 P        0
 D        0
 F        0
          -------------------------------------------------

 Total:   1

 Net Charge: 0 (Nuclei minus Electrons)

 Preset values for MO occupations will be applied through SCF cycle no. 1000000
 Thereafter, the program will assign electrons to MOs that are spatially
 similar to the occupied MOs in a "reference" cycle ("KeepOrbitals").
 The reference cycle is always the PREVIOUS cycle: it will evolve with
 the SCF procedure.



 ================================
 (Slater-type)  F U N C T I O N S  ***  (Basis and Fit)  ***
 ================================
  

 Atom Type    1  (H)
 ==============

 Valence Basis Sets:   4
 -----------------------
   1 S    0.690000
   1 S    0.920000
   1 S    1.580000
   2 P    1.250000

 Charge Fitting Sets (for the computation of the Coulomb Potential):  11
 -----------------------------------------------------------------------
   1 S    3.160000
   1 S    2.090000
   1 S    1.380000
   2 S    1.500000
   2 P    4.000000
   2 P    2.650000
   2 P    1.750000
   3 D    4.000000
   3 D    2.500000
   4 F    3.000000
   5 G    4.000000


 BAS: List of all Elementary Cartesian Basis Functions
 =====================================================

 The numbering in the list below (to the right of the function characteristics) is referred
 to in print-outs of MO eigenvectors and Mulliken populations in the BAS representation
 (as contrasted to the SFO representation).

 Notes:
 1. The functions are characterized by a polynomial prefactor (powers of x,y,z and r) and
    an exponential decay factor alpha.
 2. Since the basis sets are specific for an atom TYPE, the individual functions occur on
    all atoms of that type.
 3. The word 'Core' in the left margin signals that it is a Core Function (CF) : not a
    degree of freedom in the valence set, but only used to ensure orthogonalization of
    the other valence basis functions on the frozen Core Orbitals.


 (power of) X  Y  Z  R     Alpha  on Atom
            ==========     =====     ==========

 H                                    1
                                  ---------------------------------------------------------------------------
            0  0  0  0     0.690      1
            0  0  0  0     0.920      2
            0  0  0  0     1.580      3
            1  0  0  0     1.250      4
            0  1  0  0     1.250      5
            0  0  1  0     1.250      6


 BAS: List of all Elementary Cartesian Basis Functions
 =====================================================

 The numbering in the list below (to the right of the function characteristics) is referred
 to in print-outs of MO eigenvectors and Mulliken populations in the BAS representation
 (as contrasted to the SFO representation).

 Notes:
 1. The functions are characterized by a polynomial prefactor (powers of x,y,z and r) and
    an exponential decay factor alpha.
 2. Since the basis sets are specific for an atom TYPE, the individual functions occur on
    all atoms of that type.
 3. The word 'Core' in the left margin signals that it is a Core Function (CF) : not a
    degree of freedom in the valence set, but only used to ensure orthogonalization of
    the other valence basis functions on the frozen Core Orbitals.


 (power of) X  Y  Z  R     Alpha  on Atom
            ==========     =====     ==========

 H                                    1
                                  ---------------------------------------------------------------------------
            0  0  0  0     0.690      1
            0  0  0  0     0.920      2
            0  0  0  0     1.580      3
            1  0  0  0     1.250      4
            0  1  0  0     1.250      5
            0  0  1  0     1.250      6
1
 ***************************************************************************************************



                                              ***********************
                                              *  T E C H N I C A L  *
                                              ***********************
  



 =============================================================
 P A R A L L E L I Z A T I O N  and  V E C T O R I Z A T I O N
 =============================================================
  
 Nr of parallel processes:                                1
 Internal max. (compile-time) nr of processes:          128
 Maximum vector length in NumInt loops:                 128



 ===============
 I O  vs.  C P U  ***  (store numerical data on disk or recalculate)  ***
 ===============
  
 Basis functions:   recalculate when needed
 Fit functions:     recalculate when needed

 IO buffersize (Mb):                                    512.000000



 =====================
 S C F   U P D A T E S
 =====================
  
 Max. nr. of cycles:                               100
 Convergence criterion:                              0.0000000100
   secondary criterion:                              0.0000000100

 Mix parameter (when DIIS does not apply):           0.2000000000
 Special mix parameter for the first cycle:          1.0000000000


 DIIS (Direct Inversion in Iteration Space)
    Replace damping when SCF Error is below:         0.5000000000
    Apply anyway after SCF cycle:
                                                     5
    (Max.) nr. of expansion vectors:                10

    Upperbound on expansion coefficients:            5.0000000000
    (when exceeded, IterationSpace is re-built)
    2nd Upperbound on coefficients:                 25.0000000000
    (when exceeded, simple damping will be used)
 Automatic ElectronSmearing (in case of problematic SCF convergence) disabled



 =================
 P R E C I S I O N  ***  (General: NumInt, NeglectFunctionTails, ...)  ***
 =================
  

 NumInt:           Target precision:                10.0000000000
 -------           Initial precision:               10.0000000000
                   Min. precision (optimization):   10.0000000000

 Neglect Functions:          Basis functions:        0.1000000000E-11
 ------------------          Fit functions:          0.1000000000E-11



 ===========================
 L I N E A R   S C A L I N G
 ===========================
  

 Cut-off radii density fit:                        0.1000000000E-13
 Overlap cut-off criterion AO matrix elements:     0.1000000000E-11
 Cut-offs for Coulomb potential and fitted density:0.1000000000E-13
 Cut-off criterion for Coulomb multipole terms:    0.1000000000E-13
1
 ***************************************************************************************************



                                            ***************************
                                            *  C O M P U T A T I O N  *
                                            ***************************
  

 Number of elements of the density matrix on this node (used, total):        21        21



 ====================================================
 Numerical Integration : Voronoi Polyhedra (Te Velde)  ***  (parameters, tests)  ***
 ====================================================
  
 General Accuracy Parameter :                         10.00

 Symmetry used in the points section:  ATOM  


 Summary of the Symmetry Unique Points:
 --------------------------------------
    Nr. of used Symmetry Operators                     1

    Points in the Atomic Spheres                      35
    Points in the Atomic Polyhedra                     0
    Points in the Outer Region                         0
    ----------------------------------------------------
    Total                                             35

    Sum of Weights                                 33854.777883

 Total nr. of points:         35
 Nr. of blocks:                1
 Block length:                35
 Nr. of dummy points:          0


 Test of Precision of the Numerical Integration Grid
 ===================================================

 Integral of the Total Core Density:                   0.00000000000000



 =====
 S C F
 =====
  

 CYCLE    1
 orbitals (Q,E):
 ---------------
 S :1...3            ( 1.00    -0.2443)  ( 0.00     0.0880)  ( 0.00     1.5159)
 P :1...1            ( 0.00     0.4007)

 CYCLE    2
 d-Pmat  mean:  0.92E-02
 imax=      2: -0.42E-01
 orbitals (Q,E):
 ---------------
 S :1...2            ( 1.00    -0.2375)  ( 0.00     0.0911)
 P :1...1            ( 0.00     0.4063)

 CYCLE    3
 d-Pmat  mean:  0.14E-02
 imax=      2:  0.63E-02
 orbitals (Q,E):
 ---------------
 S :1...2            ( 1.00    -0.2388)  ( 0.00     0.0905)
 P :1...1            ( 0.00     0.4053)

 CYCLE    4
 d-Pmat  mean:  0.13E-04
 imax=      2:  0.50E-04
 orbitals (Q,E):
 ---------------
 S :1...2            ( 1.00    -0.2388)  ( 0.00     0.0904)
 P :1...1            ( 0.00     0.4053)

 CYCLE    5
 d-Pmat  mean:  0.74E-07
 imax=      2:  0.34E-06
 orbitals (Q,E):
 ---------------
 S :1...2            ( 1.00    -0.2388)  ( 0.00     0.0904)
 P :1...1            ( 0.00     0.4053)

 CYCLE    6
 d-Pmat  mean:  0.15E-10
 imax=      2:  0.68E-10
 orbitals (Q,E):
 ---------------
 S :1...2            ( 1.00    -0.2388)  ( 0.00     0.0904)
 P :1...1            ( 0.00     0.4053)

 SCF CONVERGED

 CYCLE    7
1
 ***************************************************************************************************



                                                *******************
                                                *  R E S U L T S  *
                                                *******************
  
 *** Setting up for NEW gradients in focky
 *** Using FIT density in focky

 Scaled ZORA Orbital Energies, per Irrep and Spin:
 =================================================
                        Occup              E (au)              E (eV)       Diff (eV) with prev. cycle
                        -----      --------------------        ------       --------------------------
 S
               1        1.000     -0.23880119907304E+00        -6.498              -3.84E-11
               2        0.000      0.90439890102080E-01         2.461
               3        0.000      0.15214114888583E+01        41.400
 P
               1        0.000      0.40526788224245E+00        11.028


 Partially Occupied:
               1 S                -0.23880119907304E+00
  
 LUMO :        2 S                 0.90439890102080E-01
  


 Orbital Energies, all Irreps
 ========================================

 Irrep        no.  (spin)   Occup              E (au)                E (eV)
 ---------------------------------------------------------------------------
 S             1             1.00       -0.23880119907304E+00        -6.4981
 S             2             0.00        0.90439890102080E-01         2.4610
 P             1             0.00        0.40526788224245E+00        11.0279
 S             3             0.00        0.15214114888583E+01        41.3997


 Scaled ZORA Orbital Energies of the Core Orbitals:
 ==================================================

 (Note that the atoms are grouped by atomtype, see the labels, and may hence NOT be in input order)

 AtomType  Orbital  Atom                   E (au)                        E (eV)
 --------  -------  ----           --------------------        ----------------



 =======================================
 M U L L I K E N   P O P U L A T I O N S
 =======================================
  
 The survey below gives for each atom:
 a) the total charge (Z minus electrons)
 b) the net spin polarization (nr of electrons spin-A minus spin-B)
 c) for each spin the atomic electron valence density (integrated) per L-value.

 Atom              Charge    Spin density          S         P         D         F
 ----              ------    ------------       ------    ------    ------    ------
 1 H               0.0000                       1.0000    0.0000    0.0000    0.0000

 Populations of individual BAS functions
 ----------------------------------------
 1 H            0.2099  0.6793  0.1109  0.0000  0.0000  0.0000

 Gross Charges per Atom (Z minus electrons)
 ==========================================
             0.0000
 Net Total:  0.00000000


 Atom-Atom Population Matrix (off-diagonal elements not doubled)
 ===============================================================

     1 :     1.0000



 =============
 Dipole Moment  ***  (Debye)  ***
 =============
  
 Vector   :         0.00000000      0.00000000      0.00000000
 Magnitude:         0.00000000

 This molecular dipole moment is calculated with analytic integration



 =========================================
 Quadrupole Moment (Buckingham convention)  ***  (a.u.)  ***
 =========================================
  
      quad-xx        quad-xy        quad-xz        quad-yy        quad-yz        quad-zz
      0.00000000     0.00000000     0.00000000     0.00000000     0.00000000     0.00000000

 This molecular quadrupole moment is calculated with analytic integration



 ===============================================================================
 Electrostatic potential at the Nuclei due to valence electrons and other nuclei
 ===============================================================================
  
         Atom                  Potential
         ----                  ---------
     1)   H                   0.94471021
 
 
 ========================
 No memory problems found
 ========================
 
 Maximum number of active allocate calls:         299
 
 *******************************************************************************

                             A D F   E X I T
 NORMAL TERMINATION



 =================
 Timing Statistics
 =================
  
 Total Used :                     CPU=        0.15      System=        0.31     Elapsed=        0.48

 Calls  Section                     ( Mean, Percentage )
 ---------------------------------------------------------------------------------------------------
     3  ><      ................      0.00    1.27             0.00    0.00             0.00    0.32
     1  INIT    ................      0.01    4.46             0.00    0.62             0.02    3.77
     1  GEOMET  ................      0.02   11.46             0.30   96.27             0.32   66.74
     1  INPUTA  ................      0.00    1.27             0.00    0.31             0.00    0.71
     1  MAINSY  ................      0.01    5.73             0.00    0.00             0.01    2.04
     1  SYMFIT  ................      0.00    0.64             0.00    0.00             0.00    0.12
     1  CORORT  ................      0.00    0.00             0.00    0.00             0.00    0.08
     1  SYMORB  ................      0.00    0.64             0.00    0.00             0.00    0.27
     1  FITINT  ................      0.01    3.82             0.00    0.31             0.01    1.76
     1  CLSMAT  ................      0.00    0.64             0.00    0.00             0.00    0.09
     1  ORTHON  ................      0.00    0.64             0.00    0.00             0.00    0.34
     1  ETALOW  ................      0.00    0.64             0.00    0.00             0.00    0.17
     1  GENPT   ................      0.01    6.37             0.00    0.00             0.01    2.08
     1  PTBAS   ................      0.00    2.55             0.00    0.31             0.00    0.89
     7  FOCKY   ................      0.01   33.12             0.00    1.55             0.01   11.67
     7  FOCKTR  ................      0.00    1.91             0.00    0.00             0.00    0.59
     7  FOCKNM  ................      0.00    0.64             0.00    0.00             0.00    0.07
     7  SDIIS   ................      0.00    1.91             0.00    0.00             0.00    0.79
     7  EMERGE  ................      0.00    9.55             0.00    0.31             0.00    3.28
     1  COREPS  ................      0.00    3.18             0.00    0.00             0.00    1.01
     1  POPAN   ................      0.00    2.55             0.00    0.00             0.00    0.72
     1  DEBYE   ................      0.00    0.64             0.00    0.00             0.00    0.18
     1  QMPOT   ................      0.01    3.82             0.00    0.00             0.01    1.24
     1  EXIT PROCEDURE .........      0.00    2.55             0.00    0.31             0.01    1.06


 Currently Open Files (EXIT00)
 ====================

 Unit    Access Format  Status   Type       Ident (file)
 -------------------------------------------------------
   3      SEQ    FORM   TRANSP  NORMAL      LOGFILE
                                          ( logfile )


 Buffered I/O statistics
 =======================
 Memory available:                    536870912
 Number of records fitting in memory:    129055
 Input :   2.2% of                         1918  *4k bytes
 Output:  13.0% of                         1307  *4k bytes
 Records from serial files evicted:           0
                    others evicted:           0
 Hash table lookups:       8629 with          0 conflicts (  0.00%)

 ***************************************************************************************************
 (LOGFILE)
 <Jul17-2008> <23:09:36>  DIRAC 2007.01  RunTime: Jul17-2008 23:09:36
 <Jul17-2008> <23:09:36>  NORMAL TERMINATION
 <Jul17-2008> <23:09:37>  END
 <Jul17-2008> <23:09:37>  ADF 2007.01  RunTime: Jul17-2008 23:09:37
 <Jul17-2008> <23:09:37>  Phosphorus (TZP)
 <Jul17-2008> <23:09:37>  RunType   : CREATE
 <Jul17-2008> <23:09:37>  Net Charge: 0 (Nuclei minus Electrons)
 <Jul17-2008> <23:09:37>  Symmetry  : ATOM
 <Jul17-2008> <23:09:37>  >>>> CORORT
 <Jul17-2008> <23:09:37>  >>>> FITINT
 <Jul17-2008> <23:09:37>  >>>> CLSMAT
 <Jul17-2008> <23:09:37>  >>>> ORTHON
 <Jul17-2008> <23:09:37>  >>>> GENPT
 <Jul17-2008> <23:09:37>  Acc.Num.Int.=  10.000
 <Jul17-2008> <23:09:37>  Block Length=  63
 <Jul17-2008> <23:09:37>  >>>> PTBAS
 <Jul17-2008> <23:09:37>  >>>> CYCLE
 <Jul17-2008> <23:09:37>    1
 <Jul17-2008> <23:09:37>    2  ErrMat  26.75585909  MaxEl -9.36187002
 <Jul17-2008> <23:09:37>    3  ErrMat  18.31757679  MaxEl -8.17180015
 <Jul17-2008> <23:09:37>    4  ErrMat  10.50126628  MaxEl  3.55547725
 <Jul17-2008> <23:09:37>    5  ErrMat   6.71747415  MaxEl -2.36156888
 <Jul17-2008> <23:09:37>    6  ErrMat   0.24891060  MaxEl  0.08244325
 <Jul17-2008> <23:09:37>    7  ErrMat   0.04631978  MaxEl  0.02005113
 <Jul17-2008> <23:09:37>    8  ErrMat   0.00742209  MaxEl -0.00350404
 <Jul17-2008> <23:09:37>    9  ErrMat   0.00013089  MaxEl  0.00004700
 <Jul17-2008> <23:09:37>   10  ErrMat   0.00000395  MaxEl -0.00000179
 <Jul17-2008> <23:09:37>   11  ErrMat   0.00000006  MaxEl  0.00000002
 <Jul17-2008> <23:09:37>   12  ErrMat   0.00000000  MaxEl  0.00000000
 <Jul17-2008> <23:09:37>  SCF converged
 <Jul17-2008> <23:09:38>   13  ErrMat   0.00000000  MaxEl  0.00000000
 <Jul17-2008> <23:09:38>   Solutions with partially occupied orbitals may not be
 <Jul17-2008> <23:09:38>   lowest in energy. You might consider lowering the
 <Jul17-2008> <23:09:38>   symmetry in the input and explicitly specifying integer
 <Jul17-2008> <23:09:38>   occupations. In that case always check that you obtain
 <Jul17-2008> <23:09:38>   an aufbau solution.
 <Jul17-2008> <23:09:38>  >>>> COREPS
 <Jul17-2008> <23:09:38>  >>>> POPAN
 <Jul17-2008> <23:09:38>  >>>> DEBYE
 <Jul17-2008> <23:09:38>  NORMAL TERMINATION
 <Jul17-2008> <23:09:38>  END
 <Jul17-2008> <23:09:38>  DIRAC 2007.01  RunTime: Jul17-2008 23:09:38
 <Jul17-2008> <23:09:38>  NORMAL TERMINATION
 <Jul17-2008> <23:09:38>  END
 <Jul17-2008> <23:09:38>  ADF 2007.01  RunTime: Jul17-2008 23:09:38
 <Jul17-2008> <23:09:38>  Hydrogen (TZP)
 <Jul17-2008> <23:09:39>  RunType   : CREATE
 <Jul17-2008> <23:09:39>  Net Charge: 0 (Nuclei minus Electrons)
 <Jul17-2008> <23:09:39>  Symmetry  : ATOM
 <Jul17-2008> <23:09:39>  >>>> CORORT
 <Jul17-2008> <23:09:39>  >>>> FITINT
 <Jul17-2008> <23:09:39>  >>>> CLSMAT
 <Jul17-2008> <23:09:39>  >>>> ORTHON
 <Jul17-2008> <23:09:39>  >>>> GENPT
 <Jul17-2008> <23:09:39>  Acc.Num.Int.=  10.000
 <Jul17-2008> <23:09:39>  Block Length=  35
 <Jul17-2008> <23:09:39>  >>>> PTBAS
 <Jul17-2008> <23:09:39>  >>>> CYCLE
 <Jul17-2008> <23:09:39>    1
 <Jul17-2008> <23:09:39>    2  ErrMat   0.00251427  MaxEl -0.00251303
 <Jul17-2008> <23:09:39>    3  ErrMat   0.00062851  MaxEl  0.00061806
 <Jul17-2008> <23:09:39>    4  ErrMat   0.00001584  MaxEl  0.00001403
 <Jul17-2008> <23:09:39>    5  ErrMat   0.00000002  MaxEl -0.00000002
 <Jul17-2008> <23:09:39>    6  ErrMat   0.00000000  MaxEl  0.00000000
 <Jul17-2008> <23:09:39>  SCF converged
 <Jul17-2008> <23:09:39>    7  ErrMat   0.00000000  MaxEl  0.00000000
 <Jul17-2008> <23:09:39>   Solutions with partially occupied orbitals may not be
 <Jul17-2008> <23:09:39>   lowest in energy. You might consider lowering the
 <Jul17-2008> <23:09:39>   symmetry in the input and explicitly specifying integer
 <Jul17-2008> <23:09:39>   occupations. In that case always check that you obtain
 <Jul17-2008> <23:09:39>   an aufbau solution.
 <Jul17-2008> <23:09:39>  >>>> COREPS
 <Jul17-2008> <23:09:39>  >>>> POPAN
 <Jul17-2008> <23:09:39>  >>>> DEBYE
 <Jul17-2008> <23:09:39>  NORMAL TERMINATION
 <Jul17-2008> <23:09:39>  END

 *******************************************************************************
 *                                                                             *
 *  -------------------------------------                                      *
 *   Amsterdam Density Functional  (ADF)         2007.01   August 20, 2007     *
 *  -------------------------------------                                      *
 *                                               Build 200708271210            *
 *                                                                             *
 *                                                                             *
 *                            =====================                            *
 *                            |                   |                            *
 *                            |     D I R A C     |                            *
 *                            |                   |                            *
 *                            =====================                            *
 *                                                                             *
 *                                                                             *
 *   Online information and documentation:  http://www.scm.com                 *
 *   E-mail:  support@scm.com   info@scm.com                                   *
 *                                                                             *
 *   Scientific publications using ADF results must be properly referenced     *
 *   See the User Manuals (or the web site) for recommended citations          *
 *   The terms and conditions of the End User License Agreement apply to       *
 *   the use of ADF, http://www.scm.com/Sales/LicAgreement.html                *
 *                                                                             *
 *****************************  sgi_itan2_linux  *******************************
 
 DIRAC 2007.01  RunTime: Jul17-2008 23:09:39
1
 NITROGEN ATOM all electron RELATIVISTIC                     
 N J RN H ZN XION ANUC 
 1000    4100.00000000 54.23252343  7.00000000  0.00000000   14.008000
  PH   PHI     EPS        DEL        DELRVR
  0.30  0.30     2500.00  0.00001000  0.00001000
 IDIRC  NC1  NDEBU NPRIN  IPUN IRCOR IWCOR
   1   300     0     0     0     0     0
   XALPHA      XLATTER      RNUC
  0.70000000  0.00000000  0.00000000
   XN   XL   XJ      XE          XZ      XDELL
  1.0  0.0  0.5      -5.000       2.000     0.00000
  2.0  0.0  0.5      -1.000       2.000     0.00000
  2.0  1.0  0.5      -1.000       2.000     0.00000
  2.0  1.0  1.5      -1.000       1.000     0.00000
 ICORP=  0  NPCL=  0  DEMP=0.00  PEPS=0.000000
 R(1)=  0.1000000E-05 D=  0.1018610E+01 RNUC=  0.0000000E+00
 converged at cycle   26  DENSITY AVERAGING    0.3000
  MAXIMUM ERROR IN R.V(R) IS   0.78088127E-05
 Q,EY,EV,EZ,ESUM,ETOT,RHO  0.700000E+01 -0.796422E+01 -0.840162E+02 -0.127663E+03 -0.300691E+02 -0.538837E+02  0.265237E-08


 DIRAC CALCULATION
1                    NITROGEN ATOM all electron RELATIVISTIC


 EXCHANGE COEFFICIENT=  0.7000000           TAIL CORRECTION=  0.           NUCLEAR RADIUS=  0.000E+00
0                       ORBITAL    N    L    J     ELECTRONS     EIGENVALUE                DELTA OF EIGENV.

                          1S1/2  1.0  0.0  0.5     2.000       -0.1403719E+02                 0.1378582E-04
                          2S1/2  2.0  0.0  0.5     2.000       -0.6456845E+00                 0.3576205E-05
                          2P1/2  2.0  1.0  0.5     2.000       -0.2347045E+00                 0.3773671E-05
                          2P3/2  2.0  1.0  1.5     1.000       -0.2339931E+00                 0.3768641E-05


                                        NUCLEAR CHARGE=    7.000000
                            INTEGRAL OF CHARGE DENSITY=    7.000000
                           SUM OF THE ORBITAL ENERGIES=    -30.0691
                                          TOTAL ENERGY=    -53.8837
                                        KINETIC ENERGY=     53.9470
                             NUCLEAR ATTRACTION ENERGY=   -127.6633
                             ELECTRON REPULSION ENERGY=     25.8057
                                       EXCHANGE ENERGY=     -5.9732

 *******************************************************************************

                             D I R A C   E X I T
 NORMAL TERMINATION



 =================
 Timing Statistics
 =================
  
 Total Used :                     CPU=        0.11      System=        0.29     Elapsed=        0.42

 Calls  Section                     ( Mean, Percentage )
 ---------------------------------------------------------------------------------------------------
     2  ><      ................      0.00    0.00             0.00    0.00             0.00    0.00
     1  EXIT PROCEDURE .........      0.11  100.00             0.29  100.00             0.42  100.00


 Currently Open Files (EXIT00)
 ====================

 Unit    Access Format  Status   Type       Ident (file)
 -------------------------------------------------------
   3      SEQ    FORM   TRANSP  NORMAL      LOGFILE
                                          ( logfile )


 Buffered I/O statistics
 =======================
 Memory available:                    536870912
 Number of records fitting in memory:    129055
 Input : 100.0% of                            0  *4k bytes
 Output: 100.0% of                            0  *4k bytes
 Records from serial files evicted:           0
                    others evicted:           0
 Hash table lookups:          0 with          0 conflicts (100.00%)

 ***************************************************************************************************
 (LOGFILE)
 <Jul17-2008> <23:09:36>  DIRAC 2007.01  RunTime: Jul17-2008 23:09:36
 <Jul17-2008> <23:09:36>  NORMAL TERMINATION
 <Jul17-2008> <23:09:37>  END
 <Jul17-2008> <23:09:37>  ADF 2007.01  RunTime: Jul17-2008 23:09:37
 <Jul17-2008> <23:09:37>  Phosphorus (TZP)
 <Jul17-2008> <23:09:37>  RunType   : CREATE
 <Jul17-2008> <23:09:37>  Net Charge: 0 (Nuclei minus Electrons)
 <Jul17-2008> <23:09:37>  Symmetry  : ATOM
 <Jul17-2008> <23:09:37>  >>>> CORORT
 <Jul17-2008> <23:09:37>  >>>> FITINT
 <Jul17-2008> <23:09:37>  >>>> CLSMAT
 <Jul17-2008> <23:09:37>  >>>> ORTHON
 <Jul17-2008> <23:09:37>  >>>> GENPT
 <Jul17-2008> <23:09:37>  Acc.Num.Int.=  10.000
 <Jul17-2008> <23:09:37>  Block Length=  63
 <Jul17-2008> <23:09:37>  >>>> PTBAS
 <Jul17-2008> <23:09:37>  >>>> CYCLE
 <Jul17-2008> <23:09:37>    1
 <Jul17-2008> <23:09:37>    2  ErrMat  26.75585909  MaxEl -9.36187002
 <Jul17-2008> <23:09:37>    3  ErrMat  18.31757679  MaxEl -8.17180015
 <Jul17-2008> <23:09:37>    4  ErrMat  10.50126628  MaxEl  3.55547725
 <Jul17-2008> <23:09:37>    5  ErrMat   6.71747415  MaxEl -2.36156888
 <Jul17-2008> <23:09:37>    6  ErrMat   0.24891060  MaxEl  0.08244325
 <Jul17-2008> <23:09:37>    7  ErrMat   0.04631978  MaxEl  0.02005113
 <Jul17-2008> <23:09:37>    8  ErrMat   0.00742209  MaxEl -0.00350404
 <Jul17-2008> <23:09:37>    9  ErrMat   0.00013089  MaxEl  0.00004700
 <Jul17-2008> <23:09:37>   10  ErrMat   0.00000395  MaxEl -0.00000179
 <Jul17-2008> <23:09:37>   11  ErrMat   0.00000006  MaxEl  0.00000002
 <Jul17-2008> <23:09:37>   12  ErrMat   0.00000000  MaxEl  0.00000000
 <Jul17-2008> <23:09:37>  SCF converged
 <Jul17-2008> <23:09:38>   13  ErrMat   0.00000000  MaxEl  0.00000000
 <Jul17-2008> <23:09:38>   Solutions with partially occupied orbitals may not be
 <Jul17-2008> <23:09:38>   lowest in energy. You might consider lowering the
 <Jul17-2008> <23:09:38>   symmetry in the input and explicitly specifying integer
 <Jul17-2008> <23:09:38>   occupations. In that case always check that you obtain
 <Jul17-2008> <23:09:38>   an aufbau solution.
 <Jul17-2008> <23:09:38>  >>>> COREPS
 <Jul17-2008> <23:09:38>  >>>> POPAN
 <Jul17-2008> <23:09:38>  >>>> DEBYE
 <Jul17-2008> <23:09:38>  NORMAL TERMINATION
 <Jul17-2008> <23:09:38>  END
 <Jul17-2008> <23:09:38>  DIRAC 2007.01  RunTime: Jul17-2008 23:09:38
 <Jul17-2008> <23:09:38>  NORMAL TERMINATION
 <Jul17-2008> <23:09:38>  END
 <Jul17-2008> <23:09:38>  ADF 2007.01  RunTime: Jul17-2008 23:09:38
 <Jul17-2008> <23:09:38>  Hydrogen (TZP)
 <Jul17-2008> <23:09:39>  RunType   : CREATE
 <Jul17-2008> <23:09:39>  Net Charge: 0 (Nuclei minus Electrons)
 <Jul17-2008> <23:09:39>  Symmetry  : ATOM
 <Jul17-2008> <23:09:39>  >>>> CORORT
 <Jul17-2008> <23:09:39>  >>>> FITINT
 <Jul17-2008> <23:09:39>  >>>> CLSMAT
 <Jul17-2008> <23:09:39>  >>>> ORTHON
 <Jul17-2008> <23:09:39>  >>>> GENPT
 <Jul17-2008> <23:09:39>  Acc.Num.Int.=  10.000
 <Jul17-2008> <23:09:39>  Block Length=  35
 <Jul17-2008> <23:09:39>  >>>> PTBAS
 <Jul17-2008> <23:09:39>  >>>> CYCLE
 <Jul17-2008> <23:09:39>    1
 <Jul17-2008> <23:09:39>    2  ErrMat   0.00251427  MaxEl -0.00251303
 <Jul17-2008> <23:09:39>    3  ErrMat   0.00062851  MaxEl  0.00061806
 <Jul17-2008> <23:09:39>    4  ErrMat   0.00001584  MaxEl  0.00001403
 <Jul17-2008> <23:09:39>    5  ErrMat   0.00000002  MaxEl -0.00000002
 <Jul17-2008> <23:09:39>    6  ErrMat   0.00000000  MaxEl  0.00000000
 <Jul17-2008> <23:09:39>  SCF converged
 <Jul17-2008> <23:09:39>    7  ErrMat   0.00000000  MaxEl  0.00000000
 <Jul17-2008> <23:09:39>   Solutions with partially occupied orbitals may not be
 <Jul17-2008> <23:09:39>   lowest in energy. You might consider lowering the
 <Jul17-2008> <23:09:39>   symmetry in the input and explicitly specifying integer
 <Jul17-2008> <23:09:39>   occupations. In that case always check that you obtain
 <Jul17-2008> <23:09:39>   an aufbau solution.
 <Jul17-2008> <23:09:39>  >>>> COREPS
 <Jul17-2008> <23:09:39>  >>>> POPAN
 <Jul17-2008> <23:09:39>  >>>> DEBYE
 <Jul17-2008> <23:09:39>  NORMAL TERMINATION
 <Jul17-2008> <23:09:39>  END
 <Jul17-2008> <23:09:39>  DIRAC 2007.01  RunTime: Jul17-2008 23:09:39
 <Jul17-2008> <23:09:39>  NORMAL TERMINATION
 <Jul17-2008> <23:09:39>  END


(INPUT FILE)
Create N  file=/usr/local/Chem-Apps/adf2007.01/atomicdata/ZORA/TZP/N
XC
GGA PBE
End
relativistic ZORA
Corepotentials t12.rel
End Input

 *******************************************************************************
 *                                                                             *
 *  -------------------------------------                                      *
 *   Amsterdam Density Functional  (ADF)         2007.01   August 20, 2007     *
 *  -------------------------------------                                      *
 *                                               Build 200708271210            *
 *                                                                             *
 *                                                                             *
 *                              =================                              *
 *                              |               |                              *
 *                              |     A D F     |                              *
 *                              |               |                              *
 *                              =================                              *
[...]
                                    1.82%     3 P:y             2.318  0.00    11 P
                                   -1.76%     2 P:x             9.621  0.00    13 O
                                    1.69%     1 P:y            -9.031  1.33    14 O
                                    1.37%     1 S              -6.498  1.00     5 H
                                   -1.31%     2 P:z             9.621  0.00    13 O
                                    1.18%     1 D:z2           10.405  0.00    11 P
                                   -1.17%     5 S              35.878  0.00    11 P
                                   -1.14%     3 S              21.652  0.00    13 O
                                    1.05%     1 P:x            -5.284  0.67     2 C
                                    1.04%     2 S             -23.975  2.00    12 O
                                    1.03%     1 D:xy           10.405  0.00    11 P



 ===============================================================================
 Electrostatic potential at the Nuclei due to valence electrons and other nuclei
 ===============================================================================
  
         Atom                  Potential
         ----                  ---------
     1)   C                  14.84448937
     2)   H                   1.20881883
     3)   H                   1.20998102
     4)   C                  14.85291102
     5)   H                   1.16500723
     6)   C                  14.85542579
     7)   H                   1.16531904
     8)   H                   1.15257005
     9)   P                  54.61504227
    10)   O                  22.69396878
    11)   O                  22.67602390
    12)   O                  22.68631691
    13)   H                   1.11962113
    14)   H                   1.11551443
    15)   N                  18.47359763
 
 
 ========================
 No memory problems found
 ========================
 
 Maximum number of active allocate calls:        2059
 
 *******************************************************************************

                             A D F   E X I T
 NORMAL TERMINATION



 =================
 Timing Statistics
 =================
  
 Total Used :                     CPU=       36.55      System=        1.10     Elapsed=       38.24

 Calls  Section                     ( Mean, Percentage )
 ---------------------------------------------------------------------------------------------------
     3  ><      ................      0.00    0.00             0.00    0.00             0.00    0.01
     1  INIT    ................      0.02    0.05             0.00    0.18             0.05    0.14
     1  GEOMET  ................      0.23    0.62             0.72   65.63             0.96    2.50
     1  FRAGM   ................      0.05    0.14             0.01    0.71             0.09    0.24
     1  INPUTA  ................      0.00    0.00             0.00    0.09             0.00    0.00
     1  ATDEN   ................      0.05    0.13             0.00    0.18             0.05    0.13
     1  MAINSY  ................      0.04    0.11             0.01    0.53             0.05    0.13
     1  SYMFIT  ................      0.03    0.08             0.00    0.00             0.03    0.08
     1  CORORT  ................      0.00    0.00             0.00    0.00             0.00    0.00
     1  SYMORB  ................      0.01    0.03             0.00    0.00             0.01    0.03
     1  FITINT  ................      0.62    1.69             0.00    0.00             0.63    1.66
     1  CLSMAT  ................      0.10    0.27             0.00    0.09             0.10    0.26
     1  ORTHON  ................      0.15    0.40             0.00    0.18             0.15    0.39
     1  ETALOW  ................      0.01    0.03             0.00    0.00             0.01    0.03
     1  GENPT   ................      1.25    3.43             0.14   12.75             1.39    3.64
     1  PTBAS   ................      1.68    4.59             0.00    0.18             1.68    4.39
    21  FOCKY   ................      1.14   65.57             0.00    6.55             1.15   62.93
    21  FOCKTR  ................      0.01    0.44             0.00    0.09             0.01    0.42
    21  FOCKNM  ................      0.00    0.00             0.00    0.00             0.00    0.00
    21  SDIIS   ................      0.00    0.25             0.00    0.71             0.00    0.26
    21  EMERGE  ................      0.12    6.93             0.00    0.09             0.12    6.66
     1  COREPS  ................      0.86    2.36             0.00    0.27             0.87    2.27
     1  TOTEN   ................      4.29   11.72             0.09    7.97             4.39   11.49
     1  POPAN   ................      0.01    0.03             0.00    0.09             0.02    0.04
     1  DEBYE   ................      0.04    0.10             0.00    0.00             0.04    0.11
     1  INPUTE  ................      0.00    0.00             0.00    0.00             0.00    0.01
     1  SYMORE  ................      0.00    0.01             0.00    0.00             0.00    0.01
     2  METS    ................      0.00    0.01             0.00    0.00             0.00    0.01
     1  CETS    ................      0.07    0.20             0.02    1.51             0.25    0.66
     1  ELNRGY  ................      0.02    0.06             0.00    0.09             0.03    0.08
     1  POPUL   ................      0.21    0.58             0.01    0.89             0.47    1.23
     1  QMPOT   ................      0.00    0.01             0.00    0.00             0.00    0.01
     1  EXIT PROCEDURE .........      0.06    0.16             0.01    1.24             0.07    0.19


 Currently Open Files (EXIT00)
 ====================

 Unit    Access Format  Status   Type       Ident (file)
 -------------------------------------------------------
   3      SEQ    FORM   TRANSP  NORMAL      LOGFILE
                                          ( logfile )


 Buffered I/O statistics
 =======================
 Memory available:                    536870912
 Number of records fitting in memory:    129055
 Input :   1.6% of                       225793  *4k bytes
 Output:   9.5% of                        13816  *4k bytes
 Records from serial files evicted:           0
                    others evicted:           0
 Hash table lookups:     707263 with          0 conflicts (  0.00%)

 ***************************************************************************************************
 (LOGFILE)
 <Jul17-2008> <23:09:36>  DIRAC 2007.01  RunTime: Jul17-2008 23:09:36
 <Jul17-2008> <23:09:36>  NORMAL TERMINATION
 <Jul17-2008> <23:09:37>  END
 <Jul17-2008> <23:09:37>  ADF 2007.01  RunTime: Jul17-2008 23:09:37
 <Jul17-2008> <23:09:37>  Phosphorus (TZP)
 <Jul17-2008> <23:09:37>  RunType   : CREATE
 <Jul17-2008> <23:09:37>  Net Charge: 0 (Nuclei minus Electrons)
 <Jul17-2008> <23:09:37>  Symmetry  : ATOM
 <Jul17-2008> <23:09:37>  >>>> CORORT
 <Jul17-2008> <23:09:37>  >>>> FITINT
 <Jul17-2008> <23:09:37>  >>>> CLSMAT
 <Jul17-2008> <23:09:37>  >>>> ORTHON
 <Jul17-2008> <23:09:37>  >>>> GENPT
 <Jul17-2008> <23:09:37>  Acc.Num.Int.=  10.000
 <Jul17-2008> <23:09:37>  Block Length=  63
 <Jul17-2008> <23:09:37>  >>>> PTBAS
 <Jul17-2008> <23:09:37>  >>>> CYCLE
 <Jul17-2008> <23:09:37>    1
 <Jul17-2008> <23:09:37>    2  ErrMat  26.75585909  MaxEl -9.36187002
 <Jul17-2008> <23:09:37>    3  ErrMat  18.31757679  MaxEl -8.17180015
 <Jul17-2008> <23:09:37>    4  ErrMat  10.50126628  MaxEl  3.55547725
 <Jul17-2008> <23:09:37>    5  ErrMat   6.71747415  MaxEl -2.36156888
 <Jul17-2008> <23:09:37>    6  ErrMat   0.24891060  MaxEl  0.08244325
 <Jul17-2008> <23:09:37>    7  ErrMat   0.04631978  MaxEl  0.02005113
 <Jul17-2008> <23:09:37>    8  ErrMat   0.00742209  MaxEl -0.00350404
 <Jul17-2008> <23:09:37>    9  ErrMat   0.00013089  MaxEl  0.00004700
 <Jul17-2008> <23:09:37>   10  ErrMat   0.00000395  MaxEl -0.00000179
 <Jul17-2008> <23:09:37>   11  ErrMat   0.00000006  MaxEl  0.00000002
 <Jul17-2008> <23:09:37>   12  ErrMat   0.00000000  MaxEl  0.00000000
 <Jul17-2008> <23:09:37>  SCF converged
 <Jul17-2008> <23:09:38>   13  ErrMat   0.00000000  MaxEl  0.00000000
 <Jul17-2008> <23:09:38>   Solutions with partially occupied orbitals may not be
 <Jul17-2008> <23:09:38>   lowest in energy. You might consider lowering the
 <Jul17-2008> <23:09:38>   symmetry in the input and explicitly specifying integer
 <Jul17-2008> <23:09:38>   occupations. In that case always check that you obtain
 <Jul17-2008> <23:09:38>   an aufbau solution.
 <Jul17-2008> <23:09:38>  >>>> COREPS
 <Jul17-2008> <23:09:38>  >>>> POPAN
 <Jul17-2008> <23:09:38>  >>>> DEBYE
 <Jul17-2008> <23:09:38>  NORMAL TERMINATION
 <Jul17-2008> <23:09:38>  END
 <Jul17-2008> <23:09:38>  DIRAC 2007.01  RunTime: Jul17-2008 23:09:38
 <Jul17-2008> <23:09:38>  NORMAL TERMINATION
 <Jul17-2008> <23:09:38>  END
 <Jul17-2008> <23:09:38>  ADF 2007.01  RunTime: Jul17-2008 23:09:38
 <Jul17-2008> <23:09:38>  Hydrogen (TZP)
 <Jul17-2008> <23:09:39>  RunType   : CREATE
 <Jul17-2008> <23:09:39>  Net Charge: 0 (Nuclei minus Electrons)
 <Jul17-2008> <23:09:39>  Symmetry  : ATOM
 <Jul17-2008> <23:09:39>  >>>> CORORT
 <Jul17-2008> <23:09:39>  >>>> FITINT
 <Jul17-2008> <23:09:39>  >>>> CLSMAT
 <Jul17-2008> <23:09:39>  >>>> ORTHON
 <Jul17-2008> <23:09:39>  >>>> GENPT
 <Jul17-2008> <23:09:39>  Acc.Num.Int.=  10.000
 <Jul17-2008> <23:09:39>  Block Length=  35
 <Jul17-2008> <23:09:39>  >>>> PTBAS
 <Jul17-2008> <23:09:39>  >>>> CYCLE
 <Jul17-2008> <23:09:39>    1
 <Jul17-2008> <23:09:39>    2  ErrMat   0.00251427  MaxEl -0.00251303
 <Jul17-2008> <23:09:39>    3  ErrMat   0.00062851  MaxEl  0.00061806
 <Jul17-2008> <23:09:39>    4  ErrMat   0.00001584  MaxEl  0.00001403
 <Jul17-2008> <23:09:39>    5  ErrMat   0.00000002  MaxEl -0.00000002
 <Jul17-2008> <23:09:39>    6  ErrMat   0.00000000  MaxEl  0.00000000
 <Jul17-2008> <23:09:39>  SCF converged
 <Jul17-2008> <23:09:39>    7  ErrMat   0.00000000  MaxEl  0.00000000
 <Jul17-2008> <23:09:39>   Solutions with partially occupied orbitals may not be
 <Jul17-2008> <23:09:39>   lowest in energy. You might consider lowering the
 <Jul17-2008> <23:09:39>   symmetry in the input and explicitly specifying integer
 <Jul17-2008> <23:09:39>   occupations. In that case always check that you obtain
 <Jul17-2008> <23:09:39>   an aufbau solution.
 <Jul17-2008> <23:09:39>  >>>> COREPS
 <Jul17-2008> <23:09:39>  >>>> POPAN
 <Jul17-2008> <23:09:39>  >>>> DEBYE
 <Jul17-2008> <23:09:39>  NORMAL TERMINATION
 <Jul17-2008> <23:09:39>  END
 <Jul17-2008> <23:09:39>  DIRAC 2007.01  RunTime: Jul17-2008 23:09:39
 <Jul17-2008> <23:09:39>  NORMAL TERMINATION
 <Jul17-2008> <23:09:39>  END
 <Jul17-2008> <23:09:39>  ADF 2007.01  RunTime: Jul17-2008 23:09:39
 <Jul17-2008> <23:09:39>  Nitrogen (TZP)
 <Jul17-2008> <23:09:40>  RunType   : CREATE
 <Jul17-2008> <23:09:40>  Net Charge: 0 (Nuclei minus Electrons)
 <Jul17-2008> <23:09:40>  Symmetry  : ATOM
 <Jul17-2008> <23:09:40>  >>>> CORORT
 <Jul17-2008> <23:09:40>  >>>> FITINT
 <Jul17-2008> <23:09:40>  >>>> CLSMAT
 <Jul17-2008> <23:09:40>  >>>> ORTHON
 <Jul17-2008> <23:09:40>  >>>> GENPT
 <Jul17-2008> <23:09:40>  Acc.Num.Int.=  10.000
 <Jul17-2008> <23:09:40>  Block Length=  55
 <Jul17-2008> <23:09:40>  >>>> PTBAS
 <Jul17-2008> <23:09:40>  >>>> CYCLE
 <Jul17-2008> <23:09:40>    1
 <Jul17-2008> <23:09:40>    2  ErrMat   6.56857037  MaxEl  4.30020650
 <Jul17-2008> <23:09:40>    3  ErrMat   2.43460588  MaxEl -1.91830468
 <Jul17-2008> <23:09:40>    4  ErrMat   1.91745413  MaxEl -1.51712096
 <Jul17-2008> <23:09:40>    5  ErrMat   1.35403116  MaxEl -1.06261854
 <Jul17-2008> <23:09:40>    6  ErrMat   0.14499498  MaxEl -0.09484998
 <Jul17-2008> <23:09:40>    7  ErrMat   0.03407768  MaxEl  0.02241067
 <Jul17-2008> <23:09:40>    8  ErrMat   0.00024673  MaxEl -0.00016281
 <Jul17-2008> <23:09:40>    9  ErrMat   0.00002009  MaxEl  0.00001174
 <Jul17-2008> <23:09:40>   10  ErrMat   0.00000003  MaxEl -0.00000002
 <Jul17-2008> <23:09:40>   11  ErrMat   0.00000000  MaxEl  0.00000000
 <Jul17-2008> <23:09:40>  SCF converged
 <Jul17-2008> <23:09:40>   12  ErrMat   0.00000000  MaxEl  0.00000000
 <Jul17-2008> <23:09:40>   Solutions with partially occupied orbitals may not be
 <Jul17-2008> <23:09:40>   lowest in energy. You might consider lowering the
 <Jul17-2008> <23:09:40>   symmetry in the input and explicitly specifying integer
 <Jul17-2008> <23:09:40>   occupations. In that case always check that you obtain
 <Jul17-2008> <23:09:40>   an aufbau solution.
 <Jul17-2008> <23:09:40>  >>>> COREPS
 <Jul17-2008> <23:09:40>  >>>> POPAN
 <Jul17-2008> <23:09:40>  >>>> DEBYE
 <Jul17-2008> <23:09:40>  NORMAL TERMINATION
 <Jul17-2008> <23:09:40>  END
 <Jul17-2008> <23:09:40>  DIRAC 2007.01  RunTime: Jul17-2008 23:09:40
 <Jul17-2008> <23:09:40>  NORMAL TERMINATION
 <Jul17-2008> <23:09:40>  END
 <Jul17-2008> <23:09:41>  ADF 2007.01  RunTime: Jul17-2008 23:09:41
 <Jul17-2008> <23:09:41>  Oxygen (TZP)
 <Jul17-2008> <23:09:41>  RunType   : CREATE
 <Jul17-2008> <23:09:41>  Net Charge: 0 (Nuclei minus Electrons)
 <Jul17-2008> <23:09:41>  Symmetry  : ATOM
 <Jul17-2008> <23:09:41>  >>>> CORORT
 <Jul17-2008> <23:09:41>  >>>> FITINT
 <Jul17-2008> <23:09:41>  >>>> CLSMAT
 <Jul17-2008> <23:09:41>  >>>> ORTHON
 <Jul17-2008> <23:09:41>  >>>> GENPT
 <Jul17-2008> <23:09:41>  Acc.Num.Int.=  10.000
 <Jul17-2008> <23:09:41>  Block Length=  58
 <Jul17-2008> <23:09:41>  >>>> PTBAS
 <Jul17-2008> <23:09:41>  >>>> CYCLE
 <Jul17-2008> <23:09:41>    1
 <Jul17-2008> <23:09:41>    2  ErrMat   8.20307511  MaxEl  5.21708553
 <Jul17-2008> <23:09:41>    3  ErrMat   3.42921591  MaxEl -2.40937275
 <Jul17-2008> <23:09:41>    4  ErrMat   2.80460538  MaxEl -1.89867120
 <Jul17-2008> <23:09:41>    5  ErrMat   1.89935636  MaxEl -1.26335093
 <Jul17-2008> <23:09:41>    6  ErrMat   0.19590895  MaxEl -0.10772026
 <Jul17-2008> <23:09:41>    7  ErrMat   0.05101561  MaxEl  0.02728360
 <Jul17-2008> <23:09:41>    8  ErrMat   0.00048616  MaxEl -0.00030212
 <Jul17-2008> <23:09:41>    9  ErrMat   0.00002631  MaxEl  0.00001245
 <Jul17-2008> <23:09:41>   10  ErrMat   0.00000048  MaxEl  0.00000030
 <Jul17-2008> <23:09:41>   11  ErrMat   0.00000000  MaxEl  0.00000000
 <Jul17-2008> <23:09:41>  SCF converged
 <Jul17-2008> <23:09:41>   12  ErrMat   0.00000000  MaxEl  0.00000000
 <Jul17-2008> <23:09:41>   Solutions with partially occupied orbitals may not be
 <Jul17-2008> <23:09:41>   lowest in energy. You might consider lowering the
 <Jul17-2008> <23:09:41>   symmetry in the input and explicitly specifying integer
 <Jul17-2008> <23:09:41>   occupations. In that case always check that you obtain
 <Jul17-2008> <23:09:41>   an aufbau solution.
 <Jul17-2008> <23:09:41>  >>>> COREPS
 <Jul17-2008> <23:09:41>  >>>> POPAN
 <Jul17-2008> <23:09:41>  >>>> DEBYE
 <Jul17-2008> <23:09:41>  NORMAL TERMINATION
 <Jul17-2008> <23:09:41>  END
 <Jul17-2008> <23:09:41>  DIRAC 2007.01  RunTime: Jul17-2008 23:09:41
 <Jul17-2008> <23:09:41>  NORMAL TERMINATION
 <Jul17-2008> <23:09:42>  END
 <Jul17-2008> <23:09:44>  ADF 2007.01  RunTime: Jul17-2008 23:09:44
 <Jul17-2008> <23:09:44>  Carbon (TZP)
 <Jul17-2008> <23:09:44>  RunType   : CREATE
 <Jul17-2008> <23:09:44>  Net Charge: 0 (Nuclei minus Electrons)
 <Jul17-2008> <23:09:44>  Symmetry  : ATOM
 <Jul17-2008> <23:09:44>  >>>> CORORT
 <Jul17-2008> <23:09:44>  >>>> FITINT
 <Jul17-2008> <23:09:44>  >>>> CLSMAT
 <Jul17-2008> <23:09:44>  >>>> ORTHON
 <Jul17-2008> <23:09:44>  >>>> GENPT
 <Jul17-2008> <23:09:44>  Acc.Num.Int.=  10.000
 <Jul17-2008> <23:09:44>  Block Length=  52
 <Jul17-2008> <23:09:44>  >>>> PTBAS
 <Jul17-2008> <23:09:44>  >>>> CYCLE
 <Jul17-2008> <23:09:44>    1
 <Jul17-2008> <23:09:44>    2  ErrMat   4.92296769  MaxEl  3.55908767
 <Jul17-2008> <23:09:44>    3  ErrMat   1.63498288  MaxEl -1.31844361
 <Jul17-2008> <23:09:44>    4  ErrMat   1.24417801  MaxEl -1.03811161
 <Jul17-2008> <23:09:44>    5  ErrMat   0.88762102  MaxEl -0.74806829
 <Jul17-2008> <23:09:44>    6  ErrMat   0.08210617  MaxEl -0.06184707
 <Jul17-2008> <23:09:44>    7  ErrMat   0.01578610  MaxEl  0.01252768
 <Jul17-2008> <23:09:44>    8  ErrMat   0.00030632  MaxEl  0.00013855
 <Jul17-2008> <23:09:44>    9  ErrMat   0.00000996  MaxEl  0.00000607
 <Jul17-2008> <23:09:44>   10  ErrMat   0.00000005  MaxEl  0.00000003
 <Jul17-2008> <23:09:44>   11  ErrMat   0.00000000  MaxEl  0.00000000
 <Jul17-2008> <23:09:44>  SCF converged
 <Jul17-2008> <23:09:44>   12  ErrMat   0.00000000  MaxEl  0.00000000
 <Jul17-2008> <23:09:44>   Solutions with partially occupied orbitals may not be
 <Jul17-2008> <23:09:44>   lowest in energy. You might consider lowering the
 <Jul17-2008> <23:09:44>   symmetry in the input and explicitly specifying integer
 <Jul17-2008> <23:09:44>   occupations. In that case always check that you obtain
 <Jul17-2008> <23:09:44>   an aufbau solution.
 <Jul17-2008> <23:09:44>  >>>> COREPS
 <Jul17-2008> <23:09:44>  >>>> POPAN
 <Jul17-2008> <23:09:44>  >>>> DEBYE
 <Jul17-2008> <23:09:44>  NORMAL TERMINATION
 <Jul17-2008> <23:09:44>  END
 <Jul17-2008> <23:09:45>  ADF 2007.01  RunTime: Jul17-2008 23:09:45
 <Jul17-2008> <23:09:45>  *** (NO TITLE) ***
 <Jul17-2008> <23:09:46>  RunType   : SINGLE POINT
 <Jul17-2008> <23:09:46>  Net Charge: -1 (Nuclei minus Electrons)
 <Jul17-2008> <23:09:46>  Symmetry  : NOSYM
 <Jul17-2008> <23:09:46>  >>>> FRAGM
 <Jul17-2008> <23:09:46>  >>>> SURPTS
 <Jul17-2008> <23:09:46>  >>>> CORORT
 <Jul17-2008> <23:09:46>  >>>> FITINT
 <Jul17-2008> <23:09:47>  >>>> CLSMAT
 <Jul17-2008> <23:09:47>  >>>> ORTHON
 <Jul17-2008> <23:09:47>  >>>> GENPT
 <Jul17-2008> <23:09:47>  Acc.Num.Int.=   5.000
 <Jul17-2008> <23:09:48>  Block Length= 128
 <Jul17-2008> <23:09:49>  >>>> PTBAS
 <Jul17-2008> <23:09:50>  >>>> CYCLE
 <Jul17-2008> <23:09:51>    1
 <Jul17-2008> <23:09:52>    2
 <Jul17-2008> <23:09:54>    3  ErrMat   3.70808219  MaxEl -0.67588607
 <Jul17-2008> <23:09:55>    4  ErrMat   1.01007208  MaxEl -0.17118416
 <Jul17-2008> <23:09:56>    5  ErrMat   2.37820744  MaxEl  0.44261542
 <Jul17-2008> <23:09:57>    6  ErrMat   0.60848009  MaxEl -0.11525308
 <Jul17-2008> <23:09:59>    7  ErrMat   0.19586080  MaxEl -0.03434212
 <Jul17-2008> <23:10:00>    8  ErrMat   0.11882835  MaxEl -0.02638247
 <Jul17-2008> <23:10:01>    9  ErrMat   0.03345682  MaxEl  0.00793529
 <Jul17-2008> <23:10:03>   10  ErrMat   0.01451982  MaxEl -0.00253366
 <Jul17-2008> <23:10:04>   11  ErrMat   0.00727599  MaxEl -0.00130403
 <Jul17-2008> <23:10:05>   12  ErrMat   0.00332646  MaxEl -0.00065013
 <Jul17-2008> <23:10:06>   13  ErrMat   0.00078992  MaxEl  0.00014809
 <Jul17-2008> <23:10:08>   14  ErrMat   0.00026216  MaxEl -0.00008186
 <Jul17-2008> <23:10:09>   15  ErrMat   0.00012480  MaxEl  0.00004843
 <Jul17-2008> <23:10:10>   16  ErrMat   0.00003699  MaxEl -0.00000869
 <Jul17-2008> <23:10:12>   17  ErrMat   0.00001270  MaxEl  0.00000208
 <Jul17-2008> <23:10:13>   18  ErrMat   0.00000529  MaxEl -0.00000122
 <Jul17-2008> <23:10:14>   19  ErrMat   0.00000229  MaxEl  0.00000044
 <Jul17-2008> <23:10:15>   20  ErrMat   0.00000025  MaxEl -0.00000006
 <Jul17-2008> <23:10:15>  SCF converged
 <Jul17-2008> <23:10:17>   21  ErrMat   0.00000007  MaxEl  0.00000001
 <Jul17-2008> <23:10:17>  >>>> COREPS
 <Jul17-2008> <23:10:18>  >>>> TOTEN
 <Jul17-2008> <23:10:22>  >>>> POPAN
 <Jul17-2008> <23:10:22>  >>>> DEBYE
 <Jul17-2008> <23:10:22>  >>>> AMETS
 <Jul17-2008> <23:10:23>   Bond Energy LDA      -3.61175002 a.u.
 <Jul17-2008> <23:10:23>   Bond Energy LDA     -98.28071854 eV
 <Jul17-2008> <23:10:23>           + GGA-X      -3.22319830 a.u.
 <Jul17-2008> <23:10:23>           + GGA-X     -87.70768846 eV
 <Jul17-2008> <23:10:23>          + GGA-XC      -3.38796209 a.u.
 <Jul17-2008> <23:10:23>          + GGA-XC     -92.19113914 eV
 <Jul17-2008> <23:10:23>  >>>> POPUL
 <Jul17-2008> <23:10:23>  NORMAL TERMINATION
 <Jul17-2008> <23:10:23>  END
