 Entering Gaussian System, Link 0=/usr/local/Chem-Apps/g03_d01/g03/g03
 Initial command:
 /usr/local/Chem-Apps/g03_d01/g03/l1.exe /scratch/LSF_66559/Gau-7511.inp -scrdir=/scratch/LSF_66559/
 Entering Link 1 = /usr/local/Chem-Apps/g03_d01/g03/l1.exe PID=      7512.
  
 Copyright (c) 1988,1990,1992,1993,1995,1998,2003,2004, Gaussian, Inc.
                  All Rights Reserved.
  
 This is the Gaussian(R) 03 program.  It is based on the
 the Gaussian(R) 98 system (copyright 1998, Gaussian, Inc.),
 the Gaussian(R) 94 system (copyright 1995, Gaussian, Inc.),
 the Gaussian 92(TM) system (copyright 1992, Gaussian, Inc.),
 the Gaussian 90(TM) system (copyright 1990, Gaussian, Inc.),
 the Gaussian 88(TM) system (copyright 1988, Gaussian, Inc.),
 the Gaussian 86(TM) system (copyright 1986, Carnegie Mellon
 University), and the Gaussian 82(TM) system (copyright 1983,
 Carnegie Mellon University). Gaussian is a federally registered
 trademark of Gaussian, Inc.
  
 This software contains proprietary and confidential information,
 including trade secrets, belonging to Gaussian, Inc.
  
 This software is provided under written license and may be
 used, copied, transmitted, or stored only in accord with that
 written license.
  
 The following legend is applicable only to US Government
 contracts under FAR:
  
                    RESTRICTED RIGHTS LEGEND
  
 Use, reproduction and disclosure by the US Government is
 subject to restrictions as set forth in subparagraphs (a)
 and (c) of the Commercial Computer Software - Restricted
 Rights clause in FAR 52.227-19.
  
 Gaussian, Inc.
 340 Quinnipiac St., Bldg. 40, Wallingford CT 06492
  
  
 ---------------------------------------------------------------
 Warning -- This program may not be used in any manner that
 competes with the business of Gaussian, Inc. or will provide
 assistance to any competitor of Gaussian, Inc.  The licensee
 of this program is prohibited from giving any competitor of
 Gaussian, Inc. access to this program.  By using this program,
 the user acknowledges that Gaussian, Inc. is engaged in the
 business of creating and licensing software in the field of
 computational chemistry and represents and warrants to the
 licensee that it is not a competitor of Gaussian, Inc. and that
 it will not use this program in any manner prohibited above.
 ---------------------------------------------------------------
  

 Cite this work as:
 Gaussian 03, Revision D.01,
 M. J. Frisch, G. W. Trucks, H. B. Schlegel, G. E. Scuseria, 
 M. A. Robb, J. R. Cheeseman, J. A. Montgomery, Jr., T. Vreven, 
 K. N. Kudin, J. C. Burant, J. M. Millam, S. S. Iyengar, J. Tomasi, 
 V. Barone, B. Mennucci, M. Cossi, G. Scalmani, N. Rega, 
 G. A. Petersson, H. Nakatsuji, M. Hada, M. Ehara, K. Toyota, 
 R. Fukuda, J. Hasegawa, M. Ishida, T. Nakajima, Y. Honda, O. Kitao, 
 H. Nakai, M. Klene, X. Li, J. E. Knox, H. P. Hratchian, J. B. Cross, 
 V. Bakken, C. Adamo, J. Jaramillo, R. Gomperts, R. E. Stratmann, 
 O. Yazyev, A. J. Austin, R. Cammi, C. Pomelli, J. W. Ochterski, 
 P. Y. Ayala, K. Morokuma, G. A. Voth, P. Salvador, J. J. Dannenberg, 
 V. G. Zakrzewski, S. Dapprich, A. D. Daniels, M. C. Strain, 
 O. Farkas, D. K. Malick, A. D. Rabuck, K. Raghavachari, 
 J. B. Foresman, J. V. Ortiz, Q. Cui, A. G. Baboul, S. Clifford, 
 J. Cioslowski, B. B. Stefanov, G. Liu, A. Liashenko, P. Piskorz, 
 I. Komaromi, R. L. Martin, D. J. Fox, T. Keith, M. A. Al-Laham, 
 C. Y. Peng, A. Nanayakkara, M. Challacombe, P. M. W. Gill, 
 B. Johnson, W. Chen, M. W. Wong, C. Gonzalez, and J. A. Pople, 
 Gaussian, Inc., Wallingford CT, 2004.
 
 ******************************************
 Gaussian 03:  IA64L-G03RevD.01 13-Oct-2005
                28-Jul-2008 
 ******************************************
 %Mem=4GB
 %NProcShared=16
 Will use up to   16 processors via shared memory.
 %Chk=molecule_2.chk
 Default route:  MaxDisk=64GB Cachesize=589840
 -------------------------------------------------------------------
 #p opt=gdiis b3lyp/aug-cc-pVDZ scf=tight guess=read geom=checkpoint
 -------------------------------------------------------------------
 1/4=589840,14=-1,18=20,19=11,26=3,29=2,38=1/1,3;
 2/4=589840,9=110,40=1/2;
 3/4=589840,5=16,7=10,11=2,16=1,25=1,30=1,74=-5/1,2,3;
 4/4=589840,5=1/1;
 5/4=589840,5=2,32=2,38=6/2;
 6/4=589840,7=2,8=2,9=2,10=2,28=1/1;
 7/4=589840/1,2,3,16;
 1/4=589840,14=-1,18=20,19=11/3(3);
 2/4=589840,9=110/2;
 6/4=589840,7=2,8=2,9=2,10=2,19=2,28=1/1;
 99/4=589840/99;
 2/4=589840,9=110/2;
 3/4=589840,5=16,7=10,11=2,16=1,25=1,30=1,74=-5/1,2,3;
 4/4=589840,5=5,16=3/1;
 5/4=589840,5=2,32=2,38=5/2;
 7/4=589840/1,2,3,16;
 1/4=589840,14=-1,18=20,19=11/3(-5);
 2/4=589840,9=110/2;
 6/4=589840,7=2,8=2,9=2,10=2,19=2,28=1/1;
 99/4=589840,9=1/99;
 Leave Link    1 at Mon Jul 28 09:55:29 2008, MaxMem=  536870912 cpu:       1.5
 (Enter /usr/local/Chem-Apps/g03_d01/g03/l101.exe)
 ---------------------
 Molecule 2, geometry.
 ---------------------
 Redundant internal coordinates taken from checkpoint file:
 molecule_2.chk
 Charge = -1 Multiplicity = 1
 C,0,-2.1621446304,-0.4908977755,-0.194944506
 H,0,-2.1008119646,-0.1600440427,-1.24875962
 H,0,-2.3647266156,0.378206917,0.4426411097
 N,0,-0.801682605,-0.991040892,0.1744956513
 H,0,-0.7838938081,-1.2452387252,1.1746673529
 P,0,0.7143870789,0.1965830775,-0.114309288
 O,0,1.7360041026,-0.5889645184,0.7606189122
 O,0,0.1742037098,1.5019696737,0.5203657501
 S,0,0.9574608613,0.1711411656,-2.1143117666
 C,0,-3.2118336882,-1.5561182062,-0.0236383755
 H,0,-3.0896085405,-2.4584236935,-0.6360814121
 C,0,-4.2551634449,-1.4518984231,0.8073659166
 H,0,-4.9949911561,-2.2495415002,0.8918856092
 H,0,-4.4137771838,-0.5590235865,1.4185246503
 O,0,1.6969342395,1.2663090144,2.9673344804
 H,0,1.952004283,0.4732605561,2.4624820163
 H,0,1.0713952671,1.6563481035,2.3292032787
 O,0,3.4937758218,-2.4800551471,-0.1231821255
 H,0,2.8437457237,-1.7765666034,0.117971395
 H,0,3.6338845379,-2.3776139662,-1.0772107891
 O,0,-1.130964154,3.562398971,-0.7246419851
 H,0,-0.6596270316,2.814570559,-0.302041199
 H,0,-0.917521835,3.5099939569,-1.6453567568
 H,0,-0.5842525835,-1.8554240629,-0.3424260765
 Recover connectivity data from disk.
                    Isotopes and Nuclear Properties:
 (Nuclear quadrupole moments (NQMom) in fm**2, nuclear magnetic moments (NMagM)
  in nuclear magnetons)

  Atom         1           2           3           4           5           6           7           8           9          10
 IAtWgt=          12           1           1          14           1          31          16          16          32          12
 AtmWgt=  12.0000000   1.0078250   1.0078250  14.0030740   1.0078250  30.9737634  15.9949146  15.9949146  31.9720718  12.0000000
 NucSpn=           0           1           1           2           1           1           0           0           0           0
 AtZEff=  -3.6000000  -1.0000000  -1.0000000  -4.5500000  -1.0000000 -12.9400000  -5.6000000  -5.6000000 -13.6000000  -3.6000000
 NQMom=    0.0000000   0.0000000   0.0000000   2.0440000   0.0000000   0.0000000   0.0000000   0.0000000   0.0000000   0.0000000
 NMagM=    0.0000000   2.7928460   2.7928460   0.4037610   2.7928460   1.1316000   0.0000000   0.0000000   0.0000000   0.0000000

  Atom        11          12          13          14          15          16          17          18          19          20
 IAtWgt=           1          12           1           1          16           1           1          16           1           1
 AtmWgt=   1.0078250  12.0000000   1.0078250   1.0078250  15.9949146   1.0078250   1.0078250  15.9949146   1.0078250   1.0078250
 NucSpn=           1           0           1           1           0           1           1           0           1           1
 AtZEff=  -1.0000000  -3.6000000  -1.0000000  -1.0000000  -5.6000000  -1.0000000  -1.0000000  -5.6000000  -1.0000000  -1.0000000
 NQMom=    0.0000000   0.0000000   0.0000000   0.0000000   0.0000000   0.0000000   0.0000000   0.0000000   0.0000000   0.0000000
 NMagM=    2.7928460   0.0000000   2.7928460   2.7928460   0.0000000   2.7928460   2.7928460   0.0000000   2.7928460   2.7928460

  Atom        21          22          23          24
 IAtWgt=          16           1           1           1
 AtmWgt=  15.9949146   1.0078250   1.0078250   1.0078250
 NucSpn=           0           1           1           1
 AtZEff=  -5.6000000  -1.0000000  -1.0000000  -1.0000000
 NQMom=    0.0000000   0.0000000   0.0000000   0.0000000
 NMagM=    0.0000000   2.7928460   2.7928460   2.7928460
 Leave Link  101 at Mon Jul 28 09:55:30 2008, MaxMem=  536870912 cpu:       0.3
 (Enter /usr/local/Chem-Apps/g03_d01/g03/l103.exe)

 GradGradGradGradGradGradGradGradGradGradGradGradGradGradGradGradGradGrad
 Berny optimization.
 Initialization pass.
                           ----------------------------
                           !    Initial Parameters    !
                           ! (Angstroms and Degrees)  !
 --------------------------                            --------------------------
 ! Name  Definition              Value          Derivative Info.                !
 --------------------------------------------------------------------------------
 ! R1    R(1,2)                  1.1062         estimate D2E/DX2                !
 ! R2    R(1,3)                  1.0968         estimate D2E/DX2                !
 ! R3    R(1,4)                  1.4958         estimate D2E/DX2                !
 ! R4    R(1,10)                 1.5053         estimate D2E/DX2                !
 ! R5    R(4,5)                  1.0321         estimate D2E/DX2                !
 ! R6    R(4,6)                  1.9474         estimate D2E/DX2                !
 ! R7    R(4,24)                 1.0304         estimate D2E/DX2                !
 ! R8    R(6,7)                  1.5577         estimate D2E/DX2                !
 ! R9    R(6,8)                  1.5488         estimate D2E/DX2                !
 ! R10   R(6,9)                  2.0149         estimate D2E/DX2                !
 ! R11   R(7,16)                 2.0178         estimate D2E/DX2                !
 ! R12   R(7,19)                 1.7466         estimate D2E/DX2                !
 ! R13   R(8,17)                 2.025          estimate D2E/DX2                !
 ! R14   R(8,22)                 1.7591         estimate D2E/DX2                !
 ! R15   R(10,11)                1.0974         estimate D2E/DX2                !
 ! R16   R(10,12)                1.3379         estimate D2E/DX2                !
 ! R17   R(12,13)                1.0912         estimate D2E/DX2                !
 ! R18   R(12,14)                1.0936         estimate D2E/DX2                !
 ! R19   R(15,16)                0.9741         estimate D2E/DX2                !
 ! R20   R(15,17)                0.975          estimate D2E/DX2                !
 ! R21   R(18,19)                0.9877         estimate D2E/DX2                !
 ! R22   R(18,20)                0.9697         estimate D2E/DX2                !
 ! R23   R(21,22)                0.9798         estimate D2E/DX2                !
 ! R24   R(21,23)                0.9466         estimate D2E/DX2                !
 ! A1    A(2,1,3)              109.0884         estimate D2E/DX2                !
 ! A2    A(2,1,4)              106.5501         estimate D2E/DX2                !
 ! A3    A(2,1,10)             111.0215         estimate D2E/DX2                !
 ! A4    A(3,1,4)              106.8203         estimate D2E/DX2                !
 ! A5    A(3,1,10)             111.4568         estimate D2E/DX2                !
 ! A6    A(4,1,10)             111.6856         estimate D2E/DX2                !
 ! A7    A(1,4,5)              109.7161         estimate D2E/DX2                !
 ! A8    A(1,4,6)              117.8738         estimate D2E/DX2                !
 ! A9    A(1,4,24)             110.3967         estimate D2E/DX2                !
 ! A10   A(5,4,6)              106.2897         estimate D2E/DX2                !
 ! A11   A(5,4,24)             106.0162         estimate D2E/DX2                !
 ! A12   A(6,4,24)             105.8386         estimate D2E/DX2                !
 ! A13   A(4,6,7)               96.8773         estimate D2E/DX2                !
 ! A14   A(4,6,8)              100.4696         estimate D2E/DX2                !
 ! A15   A(4,6,9)              103.4989         estimate D2E/DX2                !
 ! A16   A(7,6,8)              115.0648         estimate D2E/DX2                !
 ! A17   A(7,6,9)              118.1679         estimate D2E/DX2                !
 ! A18   A(8,6,9)              117.3543         estimate D2E/DX2                !
 ! A19   A(6,7,16)             106.1695         estimate D2E/DX2                !
 ! A20   A(6,7,19)             123.5194         estimate D2E/DX2                !
 ! A21   A(16,7,19)            126.8993         estimate D2E/DX2                !
 ! A22   A(6,8,17)             106.0082         estimate D2E/DX2                !
 ! A23   A(6,8,22)             127.0602         estimate D2E/DX2                !
 ! A24   A(17,8,22)            124.8007         estimate D2E/DX2                !
 ! A25   A(1,10,11)            116.1478         estimate D2E/DX2                !
 ! A26   A(1,10,12)            124.0118         estimate D2E/DX2                !
 ! A27   A(11,10,12)           119.8393         estimate D2E/DX2                !
 ! A28   A(10,12,13)           121.3246         estimate D2E/DX2                !
 ! A29   A(10,12,14)           121.5899         estimate D2E/DX2                !
 ! A30   A(13,12,14)           117.0778         estimate D2E/DX2                !
 ! A31   A(16,15,17)            98.8864         estimate D2E/DX2                !
 ! A32   A(7,16,15)            146.8984         estimate D2E/DX2                !
 ! A33   A(8,17,15)            146.9689         estimate D2E/DX2                !
 ! A34   A(19,18,20)           105.0734         estimate D2E/DX2                !
 ! A35   A(7,19,18)            172.5381         estimate D2E/DX2                !
 ! A36   A(22,21,23)           105.5929         estimate D2E/DX2                !
 ! A37   A(8,22,21)            177.6714         estimate D2E/DX2                !
 ! D1    D(2,1,4,5)            175.6134         estimate D2E/DX2                !
 ! D2    D(2,1,4,6)             53.8371         estimate D2E/DX2                !
 ! D3    D(2,1,4,24)           -67.9024         estimate D2E/DX2                !
 ! D4    D(3,1,4,5)             59.1105         estimate D2E/DX2                !
 ! D5    D(3,1,4,6)            -62.6658         estimate D2E/DX2                !
 ! D6    D(3,1,4,24)           175.5946         estimate D2E/DX2                !
 ! D7    D(10,1,4,5)           -62.9943         estimate D2E/DX2                !
 ! D8    D(10,1,4,6)           175.2294         estimate D2E/DX2                !
 ! D9    D(10,1,4,24)           53.4898         estimate D2E/DX2                !
 ! D10   D(2,1,10,11)           57.5172         estimate D2E/DX2                !
 ! D11   D(2,1,10,12)         -122.0832         estimate D2E/DX2                !
 ! D12   D(3,1,10,11)          179.3523         estimate D2E/DX2                !
 ! D13   D(3,1,10,12)           -0.2481         estimate D2E/DX2                !
 ! D14   D(4,1,10,11)          -61.2482         estimate D2E/DX2                !
 ! D15   D(4,1,10,12)          119.1514         estimate D2E/DX2                !
 ! D16   D(1,4,6,7)            165.0431         estimate D2E/DX2                !
 ! D17   D(1,4,6,8)             47.8992         estimate D2E/DX2                !
 ! D18   D(1,4,6,9)            -73.7627         estimate D2E/DX2                !
 ! D19   D(5,4,6,7)             41.5283         estimate D2E/DX2                !
 ! D20   D(5,4,6,8)            -75.6156         estimate D2E/DX2                !
 ! D21   D(5,4,6,9)            162.7225         estimate D2E/DX2                !
 ! D22   D(24,4,6,7)           -70.9105         estimate D2E/DX2                !
 ! D23   D(24,4,6,8)           171.9456         estimate D2E/DX2                !
 ! D24   D(24,4,6,9)            50.2837         estimate D2E/DX2                !
 ! D25   D(4,6,7,16)          -104.9482         estimate D2E/DX2                !
 ! D26   D(4,6,7,19)            94.6798         estimate D2E/DX2                !
 ! D27   D(8,6,7,16)             0.0309         estimate D2E/DX2                !
 ! D28   D(8,6,7,19)          -160.3411         estimate D2E/DX2                !
 ! D29   D(9,6,7,16)           145.7047         estimate D2E/DX2                !
 ! D30   D(9,6,7,19)           -14.6673         estimate D2E/DX2                !
 ! D31   D(4,6,8,17)           102.764          estimate D2E/DX2                !
 ! D32   D(4,6,8,22)           -93.3501         estimate D2E/DX2                !
 ! D33   D(7,6,8,17)             0.0048         estimate D2E/DX2                !
 ! D34   D(7,6,8,22)           163.8907         estimate D2E/DX2                !
 ! D35   D(9,6,8,17)          -145.9598         estimate D2E/DX2                !
 ! D36   D(9,6,8,22)            17.926          estimate D2E/DX2                !
 ! D37   D(6,7,16,15)           -0.6202         estimate D2E/DX2                !
 ! D38   D(19,7,16,15)         158.8804         estimate D2E/DX2                !
 ! D39   D(6,7,19,18)         -168.6276         estimate D2E/DX2                !
 ! D40   D(16,7,19,18)          35.1656         estimate D2E/DX2                !
 ! D41   D(6,8,17,15)            0.4278         estimate D2E/DX2                !
 ! D42   D(22,8,17,15)        -163.924          estimate D2E/DX2                !
 ! D43   D(6,8,22,21)          173.1395         estimate D2E/DX2                !
 ! D44   D(17,8,22,21)         -25.82           estimate D2E/DX2                !
 ! D45   D(1,10,12,13)         179.5689         estimate D2E/DX2                !
 ! D46   D(1,10,12,14)           0.605          estimate D2E/DX2                !
 ! D47   D(11,10,12,13)         -0.0175         estimate D2E/DX2                !
 ! D48   D(11,10,12,14)       -178.9815         estimate D2E/DX2                !
 ! D49   D(17,15,16,7)           0.8176         estimate D2E/DX2                !
 ! D50   D(16,15,17,8)          -0.7073         estimate D2E/DX2                !
 ! D51   D(20,18,19,7)        -171.3156         estimate D2E/DX2                !
 ! D52   D(23,21,22,8)         165.9291         estimate D2E/DX2                !
 --------------------------------------------------------------------------------
 Trust Radius=3.00D-01 FncErr=1.00D-07 GrdErr=1.00D-06
 Number of steps in this run= 123 maximum allowed number of steps= 144.
 GradGradGradGradGradGradGradGradGradGradGradGradGradGradGradGradGradGrad

 Leave Link  103 at Mon Jul 28 09:55:30 2008, MaxMem=  536870912 cpu:       0.7
 (Enter /usr/local/Chem-Apps/g03_d01/g03/l202.exe)
                          Input orientation:                          
 ---------------------------------------------------------------------
 Center     Atomic     Atomic              Coordinates (Angstroms)
 Number     Number      Type              X           Y           Z
 ---------------------------------------------------------------------
    1          6             0       -2.162145   -0.490898   -0.194945
    2          1             0       -2.100812   -0.160044   -1.248760
    3          1             0       -2.364727    0.378207    0.442641
    4          7             0       -0.801683   -0.991041    0.174496
    5          1             0       -0.783894   -1.245239    1.174667
    6         15             0        0.714387    0.196583   -0.114309
    7          8             0        1.736004   -0.588965    0.760619
    8          8             0        0.174204    1.501970    0.520366
    9         16             0        0.957461    0.171141   -2.114312
   10          6             0       -3.211834   -1.556118   -0.023638
   11          1             0       -3.089609   -2.458424   -0.636081
   12          6             0       -4.255163   -1.451898    0.807366
   13          1             0       -4.994991   -2.249542    0.891886
   14          1             0       -4.413777   -0.559024    1.418525
   15          8             0        1.696934    1.266309    2.967334
   16          1             0        1.952004    0.473261    2.462482
   17          1             0        1.071395    1.656348    2.329203
   18          8             0        3.493776   -2.480055   -0.123182
   19          1             0        2.843746   -1.776567    0.117971
   20          1             0        3.633885   -2.377614   -1.077211
   21          8             0       -1.130964    3.562399   -0.724642
   22          1             0       -0.659627    2.814571   -0.302041
   23          1             0       -0.917522    3.509994   -1.645357
   24          1             0       -0.584253   -1.855424   -0.342426
 ---------------------------------------------------------------------
                    Distance matrix (angstroms):
                    1          2          3          4          5
     1  C    0.000000
     2  H    1.106233   0.000000
     3  H    1.096767   1.794492   0.000000
     4  N    1.495823   2.098559   2.095196   0.000000
     5  H    2.084333   2.963936   2.381275   1.032122   0.000000
     6  P    2.958643   3.056061   3.134346   1.947390   2.446458
     7  O    4.014758   4.352325   4.225225   2.635348   2.636668
     8  O    3.153048   3.326829   2.777598   2.699460   2.982149
     9  S    3.722124   3.195606   4.197358   3.111895   3.981938
    10  C    1.505287   2.164328   2.162550   2.483425   2.725339
    11  H    2.219448   2.575974   3.120187   2.836345   3.172846
    12  C    2.511748   3.246193   2.656325   3.541108   3.496760
    13  H    3.507000   4.162287   3.745020   4.436475   4.338425
    14  H    2.770879   3.552942   2.455475   3.844668   3.702217
    15  O    5.289638   5.850881   4.864143   4.374776   3.959297
    16  H    4.991767   5.531700   4.766860   3.868055   3.478052
    17  H    4.630094   5.115076   4.123069   3.893566   3.632390
    18  O    5.995943   6.160259   6.543078   4.555956   4.637633
    19  H    5.177818   5.378638   5.645940   3.729530   3.815584
    20  H    6.158900   6.150918   6.774056   4.812859   5.086255
    21  O    4.215819   3.882253   3.608850   4.653030   5.180851
    22  H    3.632513   3.438259   3.065581   3.837961   4.321824
    23  H    4.433950   3.876422   4.032645   4.856397   5.530156
    24  H    2.091274   2.448613   2.962351   1.030360   1.647348
                    6          7          8          9         10
     6  P    0.000000
     7  O    1.557654   0.000000
     8  O    1.548756   2.620868   0.000000
     9  S    2.014880   3.073942   3.053870   0.000000
    10  C    4.300627   5.102112   4.594898   4.973666   0.000000
    11  H    4.668157   5.360241   5.260661   5.047628   1.097352
    12  C    5.316334   6.053175   5.331698   6.192084   1.337896
    13  H    6.292293   6.934050   6.397846   7.094266   2.121007
    14  H    5.405422   6.184945   5.109203   6.470261   2.125723
    15  O    3.406793   2.883255   2.891695   5.250652   6.403750
    16  H    2.871951   2.017750   2.826771   4.693339   6.079835
    17  H    2.868645   2.818438   2.025013   4.686539   5.848235
    18  O    3.858688   2.728936   5.224006   4.174486   6.769695
    19  H    2.912292   1.746564   4.247020   3.512083   6.061245
    20  H    4.009630   3.190429   5.438089   3.838616   6.974864
    21  O    3.886714   5.259213   2.738408   4.218214   5.569618
    22  H    2.962603   4.295619   1.759133   3.589849   5.068943
    23  H    3.998240   5.443471   3.148711   3.857903   5.793042
    24  H    2.439105   2.864301   3.548487   3.102165   2.663718
                   11         12         13         14         15
    11  H    0.000000
    12  C    2.110723   0.000000
    13  H    2.451285   1.091203   0.000000
    14  H    3.095569   1.093572   1.863601   0.000000
    15  O    7.054731   6.890688   7.839041   6.562884   0.000000
    16  H    6.604069   6.706309   7.625036   6.532888   0.974096
    17  H    6.560352   6.352119   7.356827   5.985342   0.975008
    18  O    6.603369   7.872045   8.552348   8.282307   5.178337
    19  H    6.019819   7.139691   7.891036   7.472984   4.323556
    20  H    6.738433   8.163679   8.851624   8.619793   5.778261
    21  O    6.332017   6.103347   7.163974   5.688247   5.186495
    22  H    5.815571   5.688710   6.772450   5.332460   4.317327
    23  H    6.431066   6.463441   7.499040   6.178032   5.757293
    24  H    2.593579   3.867873   4.597115   4.409859   5.089553
                   16         17         18         19         20
    16  H    0.000000
    17  H    1.480855   0.000000
    18  O    4.217202   5.384418   0.000000
    19  H    3.369519   4.451480   0.987720   0.000000
    20  H    4.846198   5.868804   0.969688   1.553717   0.000000
    21  O    5.404186   4.220117   7.632904   6.709163   7.623112
    22  H    4.465976   3.355796   6.731702   5.790386   6.781881
    23  H    5.859204   4.815488   7.593237   6.723406   7.463378
    24  H    4.441045   4.712888   4.131410   3.459676   4.313383
                   21         22         23         24
    21  O    0.000000
    22  H    0.979795   0.000000
    23  H    0.946583   1.534477   0.000000
    24  H    5.458735   4.670777   5.531402   0.000000
 Stoichiometry    C3H13NO5PS(1-)
 Framework group  C1[X(C3H13NO5PS)]
 Deg. of freedom    66
 Full point group                 C1
 Largest Abelian subgroup         C1      NOp   1
 Largest concise Abelian subgroup C1      NOp   1
                         Standard orientation:                         
 ---------------------------------------------------------------------
 Center     Atomic     Atomic              Coordinates (Angstroms)
 Number     Number      Type              X           Y           Z
 ---------------------------------------------------------------------
    1          6             0       -2.162145   -0.490898   -0.194945
    2          1             0       -2.100812   -0.160044   -1.248760
    3          1             0       -2.364727    0.378207    0.442641
    4          7             0       -0.801683   -0.991041    0.174496
    5          1             0       -0.783894   -1.245239    1.174667
    6         15             0        0.714387    0.196583   -0.114309
    7          8             0        1.736004   -0.588965    0.760619
    8          8             0        0.174204    1.501970    0.520366
    9         16             0        0.957461    0.171141   -2.114312
   10          6             0       -3.211834   -1.556118   -0.023638
   11          1             0       -3.089609   -2.458424   -0.636081
   12          6             0       -4.255163   -1.451898    0.807366
   13          1             0       -4.994991   -2.249542    0.891886
   14          1             0       -4.413777   -0.559024    1.418525
   15          8             0        1.696934    1.266309    2.967334
   16          1             0        1.952004    0.473261    2.462482
   17          1             0        1.071395    1.656348    2.329203
   18          8             0        3.493776   -2.480055   -0.123182
   19          1             0        2.843746   -1.776567    0.117971
   20          1             0        3.633885   -2.377614   -1.077211
   21          8             0       -1.130964    3.562399   -0.724642
   22          1             0       -0.659627    2.814571   -0.302041
   23          1             0       -0.917522    3.509994   -1.645357
   24          1             0       -0.584253   -1.855424   -0.342426
 ---------------------------------------------------------------------
 Rotational constants (GHZ):      0.6105963      0.4241210      0.3757366
 Leave Link  202 at Mon Jul 28 09:55:30 2008, MaxMem=  536870912 cpu:       0.5
 (Enter /usr/local/Chem-Apps/g03_d01/g03/l301.exe)
 Standard basis: Aug-CC-pVDZ (5D, 7F)
 There are   378 symmetry adapted basis functions of A   symmetry.
 Integral buffers will be    131072 words long.
 Raffenetti 2 integral format.
 Two-electron integral symmetry is turned on.
   378 basis functions,   696 primitive gaussians,   400 cartesian basis functions
    55 alpha electrons       55 beta electrons
       nuclear repulsion energy       888.3458836492 Hartrees.
 IExCor= 402 DFT=T Ex=B+HF Corr=LYP ExCW=0 ScaHFX=  0.200000
 ScaDFX=  0.800000  0.720000  1.000000  0.810000
 IRadAn=      0 IRanWt=     -1 IRanGd=            0 ICorTp=0
 NAtoms=   24 NActive=   24 NUniq=   24 SFac= 7.50D-01 NAtFMM=   80 NAOKFM=F Big=F
 Leave Link  301 at Mon Jul 28 09:55:30 2008, MaxMem=  536870912 cpu:       0.3
 (Enter /usr/local/Chem-Apps/g03_d01/g03/l302.exe)
 NPDir=0 NMtPBC=     1 NCelOv=     1 NCel=       1 NClECP=     1 NCelD=      1
         NCelK=      1 NCelE2=     1 NClLst=     1 CellRange=     0.0.
 One-electron integrals computed using PRISM.
 NBasis=   378 RedAO= T  NBF=   378
 NBsUse=   378 1.00D-06 NBFU=   378
 Precomputing XC quadrature grid using
 IXCGrd= 2 IRadAn=           0 IRanWt=          -1 IRanGd=           0.
 NRdTot=    1572 NPtTot=      200772 NUsed=      211873 NTot=      211905
 NSgBfM=   398   398   398   399.
 Leave Link  302 at Mon Jul 28 09:55:31 2008, MaxMem=  536870912 cpu:      12.1
 (Enter /usr/local/Chem-Apps/g03_d01/g03/l303.exe)
 DipDrv:  MaxL=1.
 Leave Link  303 at Mon Jul 28 09:55:32 2008, MaxMem=  536870912 cpu:       1.5
 (Enter /usr/local/Chem-Apps/g03_d01/g03/l401.exe)
 Initial guess read from the checkpoint file:
 molecule_2.chk
 Guess basis will be translated and rotated to current coordinates.
 Initial guess orbital symmetries:
       Occupied  (A) (A) (A) (A) (A) (A) (A) (A) (A) (A) (A) (A)
                 (A) (A) (A) (A) (A) (A) (A) (A) (A) (A) (A) (A)
                 (A) (A) (A) (A) (A) (A) (A) (A) (A) (A) (A) (A)
                 (A) (A) (A) (A) (A) (A) (A) (A) (A) (A) (A) (A)
                 (A) (A) (A) (A) (A) (A) (A)
       Virtual   (A) (A) (A) (A) (A) (A) (A) (A) (A) (A) (A) (A)
                 (A) (A) (A) (A) (A) (A) (A) (A) (A) (A) (A) (A)
                 (A) (A) (A) (A) (A) (A) (A) (A) (A) (A) (A) (A)
                 (A) (A) (A) (A) (A) (A) (A) (A) (A) (A) (A) (A)
                 (A) (A) (A) (A) (A) (A) (A) (A) (A) (A) (A) (A)
                 (A) (A) (A) (A) (A) (A) (A) (A) (A) (A) (A) (A)
                 (A) (A) (A) (A) (A) (A) (A) (A) (A) (A) (A) (A)
                 (A) (A) (A) (A) (A) (A) (A) (A) (A) (A) (A) (A)
                 (A) (A) (A) (A) (A) (A) (A) (A) (A) (A) (A) (A)
                 (A) (A) (A) (A) (A) (A) (A) (A) (A) (A) (A) (A)
                 (A) (A) (A) (A) (A) (A) (A) (A) (A) (A) (A) (A)
                 (A) (A) (A) (A) (A) (A) (A) (A) (A) (A) (A) (A)
                 (A) (A) (A) (A) (A) (A) (A) (A) (A) (A) (A) (A)
                 (A) (A) (A) (A) (A) (A) (A) (A) (A) (A) (A) (A)
                 (A) (A) (A) (A) (A) (A) (A) (A) (A) (A) (A) (A)
                 (A) (A) (A) (A) (A) (A) (A) (A) (A) (A) (A) (A)
                 (A) (A) (A) (A) (A) (A) (A) (A) (A) (A) (A) (A)
                 (A) (A) (A) (A) (A) (A) (A) (A) (A) (A) (A) (A)
                 (A) (A) (A) (A) (A) (A) (A) (A) (A) (A) (A) (A)
                 (A) (A) (A) (A) (A) (A) (A) (A) (A) (A) (A) (A)
                 (A) (A) (A) (A) (A) (A) (A) (A) (A) (A) (A) (A)
                 (A) (A) (A) (A) (A) (A) (A) (A) (A) (A) (A) (A)
                 (A) (A) (A) (A) (A) (A) (A) (A) (A) (A) (A) (A)
                 (A) (A) (A) (A) (A) (A) (A) (A) (A) (A) (A) (A)
                 (A) (A) (A) (A) (A) (A) (A) (A) (A) (A) (A) (A)
                 (A) (A) (A) (A) (A) (A) (A) (A) (A) (A) (A) (A)
                 (A) (A) (A) (A) (A) (A) (A) (A) (A) (A) (A)
 The electronic state of the initial guess is 1-A.
 Leave Link  401 at Mon Jul 28 09:55:32 2008, MaxMem=  536870912 cpu:       9.1
 (Enter /usr/local/Chem-Apps/g03_d01/g03/l502.exe)
 Closed shell SCF:
 Requested convergence on RMS density matrix=1.00D-08 within 128 cycles.
 Requested convergence on MAX density matrix=1.00D-06.
 Requested convergence on             energy=1.00D-06.
 No special actions if energy rises.
 Using DIIS extrapolation, IDIIS=  1040.
 Integral symmetry usage will be decided dynamically.
       211872 words used for storage of precomputed grid.
 IEnd=    798174 IEndB=    798174 NGot= 536870912 MDV= 536249779
 LenX= 536249779
 Fock matrices will be formed incrementally for  20 cycles.

 Cycle   1  Pass 1  IDiag  1:
 Petite list used in FoFDir.
 MinBra= 0 MaxBra= 2 Meth= 1.
 IRaf=       0 NMat=   1 IRICut=       1 DoRegI=T DoRafI=F ISym2E= 1 JSym2E=1.
 E= -1292.85497513548    
 DIIS: error= 1.44D-03 at cycle   1 NSaved=   1.
 NSaved= 1 IEnMin= 1 EnMin= -1292.85497513548     IErMin= 1 ErrMin= 1.44D-03
 ErrMax= 1.44D-03 EMaxC= 1.00D-01 BMatC= 3.08D-03 BMatP= 3.08D-03
 IDIUse=3 WtCom= 9.86D-01 WtEn= 1.44D-02
 Coeff-Com:  0.100D+01
 Coeff-En:   0.100D+01
 Coeff:      0.100D+01
 Gap=     0.138 Goal=   None    Shift=    0.000
 GapD=    0.138 DampG=1.000 DampE=1.000 DampFc=1.0000 IDamp=-1.
 RMSDP=1.21D-03 MaxDP=6.25D-02              OVMax= 4.94D-02

 Cycle   2  Pass 1  IDiag  1:
 RMSU=  1.19D-03    CP:  9.89D-01
 E= -1292.86016167623     Delta-E=       -0.005186540750 Rises=F Damp=F
 DIIS: error= 1.26D-03 at cycle   2 NSaved=   2.
 NSaved= 2 IEnMin= 2 EnMin= -1292.86016167623     IErMin= 2 ErrMin= 1.26D-03
 ErrMax= 1.26D-03 EMaxC= 1.00D-01 BMatC= 2.30D-03 BMatP= 3.08D-03
 IDIUse=3 WtCom= 9.87D-01 WtEn= 1.26D-02
 Coeff-Com:  0.454D+00 0.546D+00
 Coeff-En:   0.186D-01 0.981D+00
 Coeff:      0.449D+00 0.551D+00
 Gap=     0.133 Goal=   None    Shift=    0.000
 RMSDP=3.29D-04 MaxDP=1.15D-02 DE=-5.19D-03 OVMax= 1.62D-02

 Cycle   3  Pass 1  IDiag  1:
 RMSU=  3.04D-04    CP:  9.88D-01  8.95D-01
 E= -1292.86237188947     Delta-E=       -0.002210213246 Rises=F Damp=F
 DIIS: error= 8.15D-04 at cycle   3 NSaved=   3.
 NSaved= 3 IEnMin= 3 EnMin= -1292.86237188947     IErMin= 3 ErrMin= 8.15D-04
 ErrMax= 8.15D-04 EMaxC= 1.00D-01 BMatC= 6.47D-04 BMatP= 2.30D-03
 IDIUse=3 WtCom= 9.92D-01 WtEn= 8.15D-03
 Coeff-Com:  0.168D+00 0.333D+00 0.499D+00
 Coeff-En:   0.000D+00 0.106D+00 0.894D+00
 Coeff:      0.166D+00 0.331D+00 0.503D+00
 Gap=     0.135 Goal=   None    Shift=    0.000
 RMSDP=9.26D-05 MaxDP=3.99D-03 DE=-2.21D-03 OVMax= 6.26D-03

 Cycle   4  Pass 1  IDiag  1:
 RMSU=  8.80D-05    CP:  9.88D-01  9.12D-01  9.33D-01
 E= -1292.86282444744     Delta-E=       -0.000452557965 Rises=F Damp=F
 DIIS: error= 2.25D-04 at cycle   4 NSaved=   4.
 NSaved= 4 IEnMin= 4 EnMin= -1292.86282444744     IErMin= 4 ErrMin= 2.25D-04
 ErrMax= 2.25D-04 EMaxC= 1.00D-01 BMatC= 7.29D-05 BMatP= 6.47D-04
 IDIUse=3 WtCom= 9.98D-01 WtEn= 2.25D-03
 Coeff-Com:  0.330D-01 0.105D+00 0.283D+00 0.579D+00
 Coeff-En:   0.000D+00 0.000D+00 0.873D-01 0.913D+00
 Coeff:      0.329D-01 0.105D+00 0.283D+00 0.579D+00
 Gap=     0.134 Goal=   None    Shift=    0.000
 RMSDP=3.48D-05 MaxDP=1.67D-03 DE=-4.53D-04 OVMax= 2.06D-03

 Cycle   5  Pass 1  IDiag  1:
 RMSU=  2.93D-05    CP:  9.88D-01  9.15D-01  9.27D-01  7.91D-01
 E= -1292.86288243906     Delta-E=       -0.000057991625 Rises=F Damp=F
 DIIS: error= 7.49D-05 at cycle   5 NSaved=   5.
 NSaved= 5 IEnMin= 5 EnMin= -1292.86288243906     IErMin= 5 ErrMin= 7.49D-05
 ErrMax= 7.49D-05 EMaxC= 1.00D-01 BMatC= 5.83D-06 BMatP= 7.29D-05
 IDIUse=1 WtCom= 1.00D+00 WtEn= 0.00D+00
 Coeff-Com:  0.239D-02 0.246D-01 0.880D-01 0.289D+00 0.596D+00
 Coeff:      0.239D-02 0.246D-01 0.880D-01 0.289D+00 0.596D+00
 Gap=     0.135 Goal=   None    Shift=    0.000
 RMSDP=1.11D-05 MaxDP=6.01D-04 DE=-5.80D-05 OVMax= 5.93D-04

 Cycle   6  Pass 1  IDiag  1:
 RMSU=  7.28D-06    CP:  9.88D-01  9.16D-01  9.40D-01  8.51D-01  8.50D-01
 E= -1292.86288700614     Delta-E=       -0.000004567078 Rises=F Damp=F
 DIIS: error= 3.42D-05 at cycle   6 NSaved=   6.
 NSaved= 6 IEnMin= 6 EnMin= -1292.86288700614     IErMin= 6 ErrMin= 3.42D-05
 ErrMax= 3.42D-05 EMaxC= 1.00D-01 BMatC= 9.22D-07 BMatP= 5.83D-06
 IDIUse=1 WtCom= 1.00D+00 WtEn= 0.00D+00
 Coeff-Com: -0.130D-02 0.424D-02 0.164D-01 0.926D-01 0.336D+00 0.552D+00
 Coeff:     -0.130D-02 0.424D-02 0.164D-01 0.926D-01 0.336D+00 0.552D+00
 Gap=     0.135 Goal=   None    Shift=    0.000
 RMSDP=3.18D-06 MaxDP=1.69D-04 DE=-4.57D-06 OVMax= 1.98D-04

 Cycle   7  Pass 1  IDiag  1:
 RMSU=  2.81D-06    CP:  9.88D-01  9.17D-01  9.41D-01  8.62D-01  8.34D-01
                    CP:  8.97D-01
 E= -1292.86288768042     Delta-E=       -0.000000674282 Rises=F Damp=F
 DIIS: error= 7.67D-06 at cycle   7 NSaved=   7.
 NSaved= 7 IEnMin= 7 EnMin= -1292.86288768042     IErMin= 7 ErrMin= 7.67D-06
 ErrMax= 7.67D-06 EMaxC= 1.00D-01 BMatC= 6.68D-08 BMatP= 9.22D-07
 IDIUse=1 WtCom= 1.00D+00 WtEn= 0.00D+00
 Coeff-Com: -0.826D-03-0.264D-03-0.247D-02 0.103D-01 0.998D-01 0.269D+00
 Coeff-Com:  0.625D+00
 Coeff:     -0.826D-03-0.264D-03-0.247D-02 0.103D-01 0.998D-01 0.269D+00
 Coeff:      0.625D+00
 Gap=     0.135 Goal=   None    Shift=    0.000
 RMSDP=1.30D-06 MaxDP=7.33D-05 DE=-6.74D-07 OVMax= 7.54D-05

 Cycle   8  Pass 1  IDiag  1:
 RMSU=  9.96D-07    CP:  9.88D-01  9.17D-01  9.40D-01  8.61D-01  8.53D-01
                    CP:  8.92D-01  8.26D-01
 E= -1292.86288774017     Delta-E=       -0.000000059746 Rises=F Damp=F
 DIIS: error= 3.20D-06 at cycle   8 NSaved=   8.
 NSaved= 8 IEnMin= 8 EnMin= -1292.86288774017     IErMin= 8 ErrMin= 3.20D-06
 ErrMax= 3.20D-06 EMaxC= 1.00D-01 BMatC= 1.22D-08 BMatP= 6.68D-08
 IDIUse=1 WtCom= 1.00D+00 WtEn= 0.00D+00
 Coeff-Com: -0.428D-03-0.344D-03-0.222D-02 0.730D-03 0.391D-01 0.122D+00
 Coeff-Com:  0.382D+00 0.459D+00
 Coeff:     -0.428D-03-0.344D-03-0.222D-02 0.730D-03 0.391D-01 0.122D+00
 Coeff:      0.382D+00 0.459D+00
 Gap=     0.135 Goal=   None    Shift=    0.000
 RMSDP=4.66D-07 MaxDP=2.99D-05 DE=-5.97D-08 OVMax= 2.61D-05

 Cycle   9  Pass 1  IDiag  1:
 RMSU=  3.24D-07    CP:  9.88D-01  9.17D-01  9.40D-01  8.62D-01  8.56D-01
                    CP:  9.01D-01  8.80D-01  7.63D-01
 E= -1292.86288775069     Delta-E=       -0.000000010520 Rises=F Damp=F
 DIIS: error= 8.83D-07 at cycle   9 NSaved=   9.
 NSaved= 9 IEnMin= 9 EnMin= -1292.86288775069     IErMin= 9 ErrMin= 8.83D-07
 ErrMax= 8.83D-07 EMaxC= 1.00D-01 BMatC= 1.22D-09 BMatP= 1.22D-08
 IDIUse=1 WtCom= 1.00D+00 WtEn= 0.00D+00
 Coeff-Com: -0.114D-03-0.127D-03-0.818D-03-0.977D-03 0.852D-02 0.309D-01
 Coeff-Com:  0.133D+00 0.270D+00 0.560D+00
 Coeff:     -0.114D-03-0.127D-03-0.818D-03-0.977D-03 0.852D-02 0.309D-01
 Coeff:      0.133D+00 0.270D+00 0.560D+00
 Gap=     0.135 Goal=   None    Shift=    0.000
 RMSDP=1.37D-07 MaxDP=6.57D-06 DE=-1.05D-08 OVMax= 8.79D-06

 Cycle  10  Pass 1  IDiag  1:
 RMSU=  1.20D-07    CP:  9.88D-01  9.17D-01  9.40D-01  8.62D-01  8.55D-01
                    CP:  9.06D-01  8.89D-01  7.64D-01  8.86D-01
 E= -1292.86288775166     Delta-E=       -0.000000000970 Rises=F Damp=F
 DIIS: error= 3.05D-07 at cycle  10 NSaved=  10.
 NSaved=10 IEnMin=10 EnMin= -1292.86288775166     IErMin=10 ErrMin= 3.05D-07
 ErrMax= 3.05D-07 EMaxC= 1.00D-01 BMatC= 1.75D-10 BMatP= 1.22D-09
 IDIUse=1 WtCom= 1.00D+00 WtEn= 0.00D+00
 Coeff-Com: -0.180D-04-0.530D-04-0.231D-03-0.778D-03-0.839D-04 0.237D-02
 Coeff-Com:  0.287D-01 0.971D-01 0.332D+00 0.541D+00
 Coeff:     -0.180D-04-0.530D-04-0.231D-03-0.778D-03-0.839D-04 0.237D-02
 Coeff:      0.287D-01 0.971D-01 0.332D+00 0.541D+00
 Gap=     0.135 Goal=   None    Shift=    0.000
 RMSDP=6.15D-08 MaxDP=3.13D-06 DE=-9.70D-10 OVMax= 3.65D-06

 Cycle  11  Pass 1  IDiag  1:
 RMSU=  4.04D-08    CP:  9.88D-01  9.17D-01  9.40D-01  8.62D-01  8.55D-01
                    CP:  9.06D-01  8.89D-01  7.86D-01  8.68D-01  7.06D-01
 E= -1292.86288775203     Delta-E=       -0.000000000368 Rises=F Damp=F
 DIIS: error= 8.76D-08 at cycle  11 NSaved=  11.
 NSaved=11 IEnMin=11 EnMin= -1292.86288775203     IErMin=11 ErrMin= 8.76D-08
 ErrMax= 8.76D-08 EMaxC= 1.00D-01 BMatC= 1.65D-11 BMatP= 1.75D-10
 IDIUse=1 WtCom= 1.00D+00 WtEn= 0.00D+00
 Coeff-Com: -0.242D-05-0.263D-04-0.768D-04-0.411D-03-0.896D-03-0.139D-02
 Coeff-Com:  0.486D-02 0.321D-01 0.144D+00 0.315D+00 0.507D+00
 Coeff:     -0.242D-05-0.263D-04-0.768D-04-0.411D-03-0.896D-03-0.139D-02
 Coeff:      0.486D-02 0.321D-01 0.144D+00 0.315D+00 0.507D+00
 Gap=     0.135 Goal=   None    Shift=    0.000
 RMSDP=2.05D-08 MaxDP=1.21D-06 DE=-3.68D-10 OVMax= 1.48D-06

 Cycle  12  Pass 1  IDiag  1:
 RMSU=  1.49D-08    CP:  9.88D-01  9.17D-01  9.40D-01  8.62D-01  8.55D-01
                    CP:  9.06D-01  8.92D-01  7.90D-01  8.84D-01  7.21D-01
                    CP:  8.12D-01
 E= -1292.86288775192     Delta-E=        0.000000000105 Rises=F Damp=F
 DIIS: error= 3.05D-08 at cycle  12 NSaved=  12.
 NSaved=12 IEnMin=11 EnMin= -1292.86288775203     IErMin=12 ErrMin= 3.05D-08
 ErrMax= 3.05D-08 EMaxC= 1.00D-01 BMatC= 1.24D-12 BMatP= 1.65D-11
 IDIUse=1 WtCom= 1.00D+00 WtEn= 0.00D+00
 Coeff-Com:  0.208D-05-0.371D-05-0.374D-05-0.941D-04-0.451D-03-0.102D-02
 Coeff-Com: -0.165D-02 0.292D-02 0.304D-01 0.902D-01 0.258D+00 0.622D+00
 Coeff:      0.208D-05-0.371D-05-0.374D-05-0.941D-04-0.451D-03-0.102D-02
 Coeff:     -0.165D-02 0.292D-02 0.304D-01 0.902D-01 0.258D+00 0.622D+00
 Gap=     0.135 Goal=   None    Shift=    0.000
 RMSDP=6.47D-09 MaxDP=3.00D-07 DE= 1.05D-10 OVMax= 5.06D-07

 SCF Done:  E(RB+HF-LYP) =  -1292.86288775     A.U. after   12 cycles
             Convg  =    0.6471D-08             -V/T =  2.0044
             S**2   =   0.0000
 KE= 1.287177435648D+03 PE=-4.849161349720D+03 EE= 1.380775142671D+03
 Leave Link  502 at Mon Jul 28 09:57:34 2008, MaxMem=  536870912 cpu:    1877.0
 (Enter /usr/local/Chem-Apps/g03_d01/g03/l601.exe)
 Copying SCF densities to generalized density rwf, ISCF=0 IROHF=0.

 **********************************************************************

            Population analysis using the SCF density.

 **********************************************************************

 Orbital symmetries:
       Occupied  (A) (A) (A) (A) (A) (A) (A) (A) (A) (A) (A) (A)
                 (A) (A) (A) (A) (A) (A) (A) (A) (A) (A) (A) (A)
                 (A) (A) (A) (A) (A) (A) (A) (A) (A) (A) (A) (A)
                 (A) (A) (A) (A) (A) (A) (A) (A) (A) (A) (A) (A)
                 (A) (A) (A) (A) (A) (A) (A)
       Virtual   (A) (A) (A) (A) (A) (A) (A) (A) (A) (A) (A) (A)
                 (A) (A) (A) (A) (A) (A) (A) (A) (A) (A) (A) (A)
                 (A) (A) (A) (A) (A) (A) (A) (A) (A) (A) (A) (A)
                 (A) (A) (A) (A) (A) (A) (A) (A) (A) (A) (A) (A)
                 (A) (A) (A) (A) (A) (A) (A) (A) (A) (A) (A) (A)
                 (A) (A) (A) (A) (A) (A) (A) (A) (A) (A) (A) (A)
                 (A) (A) (A) (A) (A) (A) (A) (A) (A) (A) (A) (A)
                 (A) (A) (A) (A) (A) (A) (A) (A) (A) (A) (A) (A)
                 (A) (A) (A) (A) (A) (A) (A) (A) (A) (A) (A) (A)
                 (A) (A) (A) (A) (A) (A) (A) (A) (A) (A) (A) (A)
                 (A) (A) (A) (A) (A) (A) (A) (A) (A) (A) (A) (A)
                 (A) (A) (A) (A) (A) (A) (A) (A) (A) (A) (A) (A)
                 (A) (A) (A) (A) (A) (A) (A) (A) (A) (A) (A) (A)
                 (A) (A) (A) (A) (A) (A) (A) (A) (A) (A) (A) (A)
                 (A) (A) (A) (A) (A) (A) (A) (A) (A) (A) (A) (A)
                 (A) (A) (A) (A) (A) (A) (A) (A) (A) (A) (A) (A)
                 (A) (A) (A) (A) (A) (A) (A) (A) (A) (A) (A) (A)
                 (A) (A) (A) (A) (A) (A) (A) (A) (A) (A) (A) (A)
                 (A) (A) (A) (A) (A) (A) (A) (A) (A) (A) (A) (A)
                 (A) (A) (A) (A) (A) (A) (A) (A) (A) (A) (A) (A)
                 (A) (A) (A) (A) (A) (A) (A) (A) (A) (A) (A) (A)
                 (A) (A) (A) (A) (A) (A) (A) (A) (A) (A) (A) (A)
                 (A) (A) (A) (A) (A) (A) (A) (A) (A) (A) (A) (A)
                 (A) (A) (A) (A) (A) (A) (A) (A) (A) (A) (A) (A)
                 (A) (A) (A) (A) (A) (A) (A) (A) (A) (A) (A) (A)
                 (A) (A) (A) (A) (A) (A) (A) (A) (A) (A) (A) (A)
                 (A) (A) (A) (A) (A) (A) (A) (A) (A) (A) (A)
 The electronic state is 1-A.
 Alpha  occ. eigenvalues --  -88.69986 -77.08612 -18.99784 -18.99656 -18.98210
 Alpha  occ. eigenvalues --  -18.97840 -18.97813 -14.32048 -10.16015 -10.14437
 Alpha  occ. eigenvalues --  -10.13534  -7.76129  -6.53359  -5.72600  -5.71898
 Alpha  occ. eigenvalues --   -5.71794  -4.69879  -4.69492  -4.69465  -0.88676
 Alpha  occ. eigenvalues --   -0.86472  -0.85575  -0.84914  -0.83761  -0.80015
 Alpha  occ. eigenvalues --   -0.72948  -0.62140  -0.56578  -0.51620  -0.47061
 Alpha  occ. eigenvalues --   -0.43381  -0.42218  -0.39004  -0.38343  -0.37846
 Alpha  occ. eigenvalues --   -0.36280  -0.35136  -0.32969  -0.31250  -0.28940
 Alpha  occ. eigenvalues --   -0.27032  -0.26422  -0.24526  -0.24088  -0.23165
 Alpha  occ. eigenvalues --   -0.22237  -0.18183  -0.17149  -0.16546  -0.16127
 Alpha  occ. eigenvalues --   -0.15838  -0.15272  -0.14923  -0.10644  -0.09245
 Alpha virt. eigenvalues --    0.04235   0.05101   0.06926   0.08060   0.08745
 Alpha virt. eigenvalues --    0.10098   0.10429   0.11390   0.11626   0.12547
 Alpha virt. eigenvalues --    0.12990   0.13413   0.14167   0.14813   0.14925
 Alpha virt. eigenvalues --    0.15304   0.15910   0.16272   0.16556   0.17056
 Alpha virt. eigenvalues --    0.17416   0.17956   0.18262   0.18897   0.19226
 Alpha virt. eigenvalues --    0.19603   0.20025   0.20414   0.20464   0.20932
 Alpha virt. eigenvalues --    0.21627   0.22183   0.22533   0.22917   0.24023
 Alpha virt. eigenvalues --    0.24437   0.24873   0.25381   0.25824   0.26195
 Alpha virt. eigenvalues --    0.26838   0.27295   0.27857   0.28437   0.28656
 Alpha virt. eigenvalues --    0.29227   0.29679   0.29986   0.30526   0.31027
 Alpha virt. eigenvalues --    0.31367   0.31774   0.32250   0.32496   0.33144
 Alpha virt. eigenvalues --    0.33958   0.34231   0.34660   0.34934   0.34988
 Alpha virt. eigenvalues --    0.35754   0.35850   0.36684   0.37383   0.37760
 Alpha virt. eigenvalues --    0.37881   0.38781   0.39081   0.39276   0.40356
 Alpha virt. eigenvalues --    0.40806   0.41668   0.41711   0.42301   0.42805
 Alpha virt. eigenvalues --    0.43219   0.43855   0.44007   0.44555   0.45517
 Alpha virt. eigenvalues --    0.46060   0.46188   0.46762   0.47682   0.47841
 Alpha virt. eigenvalues --    0.48555   0.48809   0.49563   0.50595   0.51249
 Alpha virt. eigenvalues --    0.51605   0.52263   0.52881   0.53628   0.54090
 Alpha virt. eigenvalues --    0.54572   0.55204   0.55614   0.56018   0.56830
 Alpha virt. eigenvalues --    0.57154   0.57790   0.58226   0.58513   0.59382
 Alpha virt. eigenvalues --    0.60247   0.60716   0.61366   0.62183   0.62261
 Alpha virt. eigenvalues --    0.62922   0.63805   0.64241   0.64738   0.65533
 Alpha virt. eigenvalues --    0.66286   0.67106   0.67474   0.67977   0.68872
 Alpha virt. eigenvalues --    0.70104   0.70216   0.70679   0.71017   0.73136
 Alpha virt. eigenvalues --    0.73854   0.74341   0.74991   0.75663   0.76488
 Alpha virt. eigenvalues --    0.76943   0.77759   0.78253   0.80156   0.80883
 Alpha virt. eigenvalues --    0.81744   0.82352   0.82917   0.83644   0.84224
 Alpha virt. eigenvalues --    0.86029   0.86876   0.88154   0.88955   0.90124
 Alpha virt. eigenvalues --    0.90861   0.91679   0.93062   0.93838   0.94733
 Alpha virt. eigenvalues --    0.96193   0.96958   0.99031   0.99386   0.99805
 Alpha virt. eigenvalues --    1.00882   1.02255   1.02654   1.04243   1.04425
 Alpha virt. eigenvalues --    1.05690   1.06271   1.06855   1.07516   1.08105
 Alpha virt. eigenvalues --    1.08885   1.09276   1.10900   1.11635   1.11963
 Alpha virt. eigenvalues --    1.12129   1.13007   1.14455   1.15669   1.15915
 Alpha virt. eigenvalues --    1.16648   1.17404   1.17590   1.17844   1.18890
 Alpha virt. eigenvalues --    1.20179   1.20800   1.22233   1.23151   1.24737
 Alpha virt. eigenvalues --    1.26251   1.27623   1.28744   1.29406   1.31024
 Alpha virt. eigenvalues --    1.32382   1.34100   1.34978   1.35449   1.37630
 Alpha virt. eigenvalues --    1.40317   1.41554   1.41843   1.42719   1.42939
 Alpha virt. eigenvalues --    1.43991   1.45064   1.45741   1.47718   1.48739
 Alpha virt. eigenvalues --    1.49497   1.50754   1.53451   1.55084   1.57190
 Alpha virt. eigenvalues --    1.57398   1.59006   1.59474   1.60961   1.61812
 Alpha virt. eigenvalues --    1.63135   1.64047   1.64430   1.65541   1.67731
 Alpha virt. eigenvalues --    1.68102   1.69685   1.72299   1.72992   1.74502
 Alpha virt. eigenvalues --    1.77267   1.80159   1.82651   1.84222   1.85446
 Alpha virt. eigenvalues --    1.85796   1.87770   1.89908   1.90602   1.92295
 Alpha virt. eigenvalues --    1.93080   1.93242   1.93948   1.94804   1.95496
 Alpha virt. eigenvalues --    1.96220   1.97339   1.99082   1.99873   2.01939
 Alpha virt. eigenvalues --    2.03215   2.03672   2.04825   2.07273   2.07776
 Alpha virt. eigenvalues --    2.08966   2.09749   2.12323   2.13050   2.17006
 Alpha virt. eigenvalues --    2.19416   2.21497   2.23905   2.26258   2.28808
 Alpha virt. eigenvalues --    2.32135   2.35623   2.37114   2.37304   2.38431
 Alpha virt. eigenvalues --    2.39311   2.40451   2.42729   2.43985   2.46330
 Alpha virt. eigenvalues --    2.48874   2.50842   2.52069   2.55865   2.58595
 Alpha virt. eigenvalues --    2.60771   2.64014   2.64740   2.66817   2.67383
 Alpha virt. eigenvalues --    2.69271   2.70641   2.71399   2.74995   2.80978
 Alpha virt. eigenvalues --    2.81907   2.84221   2.86987   2.89801   2.90665
 Alpha virt. eigenvalues --    2.94063   2.98160   3.01083   3.02816   3.09825
 Alpha virt. eigenvalues --    3.16729   3.37519   3.45422   3.46060   3.47147
 Alpha virt. eigenvalues --    3.48343   3.50087   3.50714   3.51620   3.54163
 Alpha virt. eigenvalues --    3.55430   3.56061   3.56669   3.57832   3.60158
 Alpha virt. eigenvalues --    3.60551   3.64588   3.64854   3.76114   3.77540
 Alpha virt. eigenvalues --    3.81115   3.89068   3.92893   3.97245   3.98353
 Alpha virt. eigenvalues --    4.15419   4.17376   4.22015
          Condensed to atoms (all electrons):
              1          2          3          4          5          6
     1  C    5.939762  -0.013110  -0.109473   0.039696  -0.170520  -0.047578
     2  H   -0.013110   2.009514  -0.506726   0.097655   0.031651  -0.001775
     3  H   -0.109473  -0.506726   2.777691  -0.130980  -0.088571   0.087116
     4  N    0.039696   0.097655  -0.130980   6.908112   0.445209  -0.300984
     5  H   -0.170520   0.031651  -0.088571   0.445209   0.802387  -0.013605
     6  P   -0.047578  -0.001775   0.087116  -0.300984  -0.013605  13.606951
     7  O    0.012469   0.008685  -0.006892   0.020633  -0.003542  -0.001294
     8  O    0.035982   0.000311  -0.028350   0.061565   0.016213  -0.109648
     9  S    0.057348  -0.015644   0.000529   0.040697  -0.009824   0.109856
    10  C   -0.040992  -0.248705  -0.218337  -0.059145   0.027414  -0.055108
    11  H   -0.300011  -0.109406   0.072658  -0.059905  -0.001378   0.013451
    12  C   -0.515741   0.179921  -0.195206   0.068001   0.032948   0.011411
    13  H    0.174108   0.002862   0.037587   0.003617  -0.007404   0.003904
    14  H   -0.308689   0.018020  -0.154692  -0.006345   0.019138  -0.002535
    15  O   -0.003470   0.000038   0.000107   0.007023  -0.004297   0.005520
    16  H    0.000672   0.000674  -0.001428  -0.005539  -0.002422   0.013932
    17  H   -0.006942  -0.000337   0.002616   0.003699  -0.001491   0.009813
    18  O   -0.000031  -0.000227   0.000432   0.004939   0.000754   0.000777
    19  H   -0.005146  -0.000655   0.000425   0.001726   0.000522  -0.006394
    20  H    0.000483  -0.000091  -0.000078  -0.002140  -0.000100   0.007755
    21  O    0.001003  -0.000093  -0.000226  -0.004117   0.000081   0.014404
    22  H    0.017331   0.007284  -0.023305  -0.005820   0.000718   0.000834
    23  H   -0.001651  -0.003843   0.005571   0.000309  -0.000697   0.001946
    24  H   -0.049251  -0.076813   0.072258   0.320449  -0.105321  -0.067019
              7          8          9         10         11         12
     1  C    0.012469   0.035982   0.057348  -0.040992  -0.300011  -0.515741
     2  H    0.008685   0.000311  -0.015644  -0.248705  -0.109406   0.179921
     3  H   -0.006892  -0.028350   0.000529  -0.218337   0.072658  -0.195206
     4  N    0.020633   0.061565   0.040697  -0.059145  -0.059905   0.068001
     5  H   -0.003542   0.016213  -0.009824   0.027414  -0.001378   0.032948
     6  P   -0.001294  -0.109648   0.109856  -0.055108   0.013451   0.011411
     7  O    9.104415  -0.118350  -0.013437  -0.008390  -0.002279  -0.001658
     8  O   -0.118350   9.180166   0.004254  -0.011828  -0.001111   0.001278
     9  S   -0.013437   0.004254  16.612276  -0.017722   0.001916  -0.000365
    10  C   -0.008390  -0.011828  -0.017722   6.273378  -0.387077  -0.653999
    11  H   -0.002279  -0.001111   0.001916  -0.387077   2.795942  -0.160802
    12  C   -0.001658   0.001278  -0.000365  -0.653999  -0.160802   6.555574
    13  H    0.000164   0.000358  -0.000255   0.254012  -0.257229  -0.350493
    14  H   -0.000904  -0.001075  -0.000345  -0.270032   0.149285   0.439859
    15  O   -0.031910  -0.043951  -0.000854  -0.000260  -0.000176   0.000735
    16  H    0.057769   0.003004  -0.002383  -0.000259  -0.000166  -0.000103
    17  H    0.003629   0.049679  -0.000979  -0.000178   0.000142   0.001350
    18  O   -0.028782  -0.001550  -0.004980   0.000567   0.000396  -0.000040
    19  H    0.096225   0.002038   0.000862   0.001296   0.001014  -0.000058
    20  H   -0.008373  -0.000234  -0.002888  -0.000163   0.000013   0.000003
    21  O   -0.001164  -0.032212  -0.005437  -0.008242  -0.000299  -0.000002
    22  H    0.002276   0.092908  -0.000943  -0.005799  -0.001555   0.001664
    23  H   -0.000189  -0.002939   0.000609   0.001585   0.000479  -0.000045
    24  H   -0.014994  -0.000726  -0.003553   0.039190  -0.015153  -0.030960
             13         14         15         16         17         18
     1  C    0.174108  -0.308689  -0.003470   0.000672  -0.006942  -0.000031
     2  H    0.002862   0.018020   0.000038   0.000674  -0.000337  -0.000227
     3  H    0.037587  -0.154692   0.000107  -0.001428   0.002616   0.000432
     4  N    0.003617  -0.006345   0.007023  -0.005539   0.003699   0.004939
     5  H   -0.007404   0.019138  -0.004297  -0.002422  -0.001491   0.000754
     6  P    0.003904  -0.002535   0.005520   0.013932   0.009813   0.000777
     7  O    0.000164  -0.000904  -0.031910   0.057769   0.003629  -0.028782
     8  O    0.000358  -0.001075  -0.043951   0.003004   0.049679  -0.001550
     9  S   -0.000255  -0.000345  -0.000854  -0.002383  -0.000979  -0.004980
    10  C    0.254012  -0.270032  -0.000260  -0.000259  -0.000178   0.000567
    11  H   -0.257229   0.149285  -0.000176  -0.000166   0.000142   0.000396
    12  C   -0.350493   0.439859   0.000735  -0.000103   0.001350  -0.000040
    13  H    2.416633  -0.726372   0.000090   0.000056   0.000021  -0.000002
    14  H   -0.726372   2.409140  -0.000061  -0.000009  -0.000264  -0.000014
    15  O    0.000090  -0.000061   7.861518   0.246243   0.248921  -0.000054
    16  H    0.000056  -0.000009   0.246243   0.643737  -0.106745   0.002673
    17  H    0.000021  -0.000264   0.248921  -0.106745   0.646818  -0.000098
    18  O   -0.000002  -0.000014  -0.000054   0.002673  -0.000098   7.801067
    19  H   -0.000079   0.000124   0.001099  -0.000701   0.000520   0.173266
    20  H    0.000001   0.000001  -0.000160  -0.000508  -0.000028   0.329519
    21  O    0.000026   0.000544  -0.000153  -0.000043   0.002622  -0.000006
    22  H    0.000384  -0.000237   0.000595   0.000826  -0.003893  -0.000250
    23  H   -0.000020  -0.000151  -0.000005  -0.000030  -0.000244   0.000033
    24  H    0.007550  -0.009732   0.001321  -0.000039  -0.000332  -0.001118
             19         20         21         22         23         24
     1  C   -0.005146   0.000483   0.001003   0.017331  -0.001651  -0.049251
     2  H   -0.000655  -0.000091  -0.000093   0.007284  -0.003843  -0.076813
     3  H    0.000425  -0.000078  -0.000226  -0.023305   0.005571   0.072258
     4  N    0.001726  -0.002140  -0.004117  -0.005820   0.000309   0.320449
     5  H    0.000522  -0.000100   0.000081   0.000718  -0.000697  -0.105321
     6  P   -0.006394   0.007755   0.014404   0.000834   0.001946  -0.067019
     7  O    0.096225  -0.008373  -0.001164   0.002276  -0.000189  -0.014994
     8  O    0.002038  -0.000234  -0.032212   0.092908  -0.002939  -0.000726
     9  S    0.000862  -0.002888  -0.005437  -0.000943   0.000609  -0.003553
    10  C    0.001296  -0.000163  -0.008242  -0.005799   0.001585   0.039190
    11  H    0.001014   0.000013  -0.000299  -0.001555   0.000479  -0.015153
    12  C   -0.000058   0.000003  -0.000002   0.001664  -0.000045  -0.030960
    13  H   -0.000079   0.000001   0.000026   0.000384  -0.000020   0.007550
    14  H    0.000124   0.000001   0.000544  -0.000237  -0.000151  -0.009732
    15  O    0.001099  -0.000160  -0.000153   0.000595  -0.000005   0.001321
    16  H   -0.000701  -0.000508  -0.000043   0.000826  -0.000030  -0.000039
    17  H    0.000520  -0.000028   0.002622  -0.003893  -0.000244  -0.000332
    18  O    0.173266   0.329519  -0.000006  -0.000250   0.000033  -0.001118
    19  H    0.631783  -0.115018  -0.000125  -0.000885   0.000137  -0.001581
    20  H   -0.115018   0.721981   0.000023   0.000207  -0.000026  -0.001345
    21  O   -0.000125   0.000023   7.772188   0.163743   0.336594   0.000172
    22  H   -0.000885   0.000207   0.163743   0.636624  -0.122439  -0.000510
    23  H    0.000137  -0.000026   0.336594  -0.122439   0.743351   0.000091
    24  H   -0.001581  -0.001345   0.000172  -0.000510   0.000091   0.875939
 Mulliken atomic charges:
              1
     1  C    1.293751
     2  H   -0.379191
     3  H   -0.592723
     4  N   -0.448354
     5  H    0.032138
     6  P    1.718271
     7  O   -1.064109
     8  O   -1.095784
     9  S   -0.748741
    10  C    1.388795
    11  H   -0.738749
    12  C    0.616727
    13  H   -0.559519
    14  H   -0.554654
    15  O   -0.287858
    16  H    0.150790
    17  H    0.151699
    18  O   -0.277272
    19  H    0.219604
    20  H    0.071166
    21  O   -0.239282
    22  H    0.240241
    23  H    0.041576
    24  H    0.061477
 Sum of Mulliken charges=  -1.00000
 Atomic charges with hydrogens summed into heavy atoms:
              1
     1  C    0.321837
     2  H    0.000000
     3  H    0.000000
     4  N   -0.354739
     5  H    0.000000
     6  P    1.718271
     7  O   -1.064109
     8  O   -1.095784
     9  S   -0.748741
    10  C    0.650046
    11  H    0.000000
    12  C   -0.497446
    13  H    0.000000
    14  H    0.000000
    15  O    0.014631
    16  H    0.000000
    17  H    0.000000
    18  O    0.013498
    19  H    0.000000
    20  H    0.000000
    21  O    0.042535
    22  H    0.000000
    23  H    0.000000
    24  H    0.000000
 Sum of Mulliken charges=  -1.00000
 Electronic spatial extent (au):  <R**2>=  3543.5052
 Charge=    -1.0000 electrons
 Dipole moment (field-independent basis, Debye):
    X=   -10.0632    Y=    -5.9111    Z=    -1.9452  Tot=    11.8319
 Quadrupole moment (field-independent basis, Debye-Ang):
   XX=  -110.6520   YY=  -115.6824   ZZ=  -110.1455
   XY=    17.1131   XZ=   -11.2730   YZ=    -4.2308
 Traceless Quadrupole moment (field-independent basis, Debye-Ang):
   XX=     1.5079   YY=    -3.5225   ZZ=     2.0145
   XY=    17.1131   XZ=   -11.2730   YZ=    -4.2308
 Octapole moment (field-independent basis, Debye-Ang**2):
  XXX=   -59.1412  YYY=   -47.3530  ZZZ=   -27.7044  XYY=   -17.8171
  XXY=    22.0453  XXZ=   -14.4197  XZZ=   -31.8510  YZZ=   -17.0498
  YYZ=   -13.9546  XYZ=    -5.1733
 Hexadecapole moment (field-independent basis, Debye-Ang**3):
 XXXX= -2650.6145 YYYY= -1713.6737 ZZZZ= -1230.7393 XXXY=   147.1281
 XXXZ=  -116.7212 YYYX=   184.8634 YYYZ=    12.2890 ZZZX=   -63.3157
 ZZZY=   -95.3412 XXYY=  -789.8542 XXZZ=  -600.6046 YYZZ=  -378.9330
 XXYZ=    22.5794 YYXZ=   -36.5909 ZZXY=   -86.8763
 N-N= 8.883458836492D+02 E-N=-4.849161342676D+03  KE= 1.287177435648D+03
 No NMR shielding tensors so no spin-rotation constants.
 Leave Link  601 at Mon Jul 28 09:57:35 2008, MaxMem=  536870912 cpu:      10.6
 (Enter /usr/local/Chem-Apps/g03_d01/g03/l701.exe)
 Compute integral first derivatives.
 ... and contract with generalized density number  0.
 Leave Link  701 at Mon Jul 28 09:57:36 2008, MaxMem=  536870912 cpu:       7.1
 (Enter /usr/local/Chem-Apps/g03_d01/g03/l702.exe)
 L702 exits ... SP integral derivatives will be done elsewhere.
 Leave Link  702 at Mon Jul 28 09:57:36 2008, MaxMem=  536870912 cpu:       0.1
 (Enter /usr/local/Chem-Apps/g03_d01/g03/l703.exe)
 Compute integral first derivatives, UseDBF=F.
 Integral derivatives from FoFDir, PRISM(SPDF).
 Symmetry not used in FoFDir.
 MinBra= 0 MaxBra= 2 Meth= 1.
 IRaf=       0 NMat=   1 IRICut=       1 DoRegI=T DoRafI=F ISym2E= 0 JSym2E=0.
 Leave Link  703 at Mon Jul 28 09:58:05 2008, MaxMem=  536870912 cpu:     433.8
 (Enter /usr/local/Chem-Apps/g03_d01/g03/l716.exe)
 Dipole        =-3.95916526D+00-2.32560963D+00-7.65299544D-01
 ***** Axes restored to original set *****
 -------------------------------------------------------------------
 Center     Atomic                   Forces (Hartrees/Bohr)
 Number     Number              X              Y              Z
 -------------------------------------------------------------------
    1          6          -0.000206999    0.000054723   -0.003174804
    2          1           0.001798950   -0.000425038    0.005061453
    3          1           0.001341553    0.000315762   -0.002472990
    4          7          -0.012072243   -0.016073198    0.004912580
    5          1           0.002402218    0.003445775   -0.006197906
    6         15           0.024923712    0.016341097    0.003592150
    7          8          -0.010548415   -0.000458400   -0.006728407
    8          8          -0.005506154   -0.006709476   -0.001328272
    9         16          -0.004774995   -0.004136498    0.001144839
   10          6           0.001460054    0.001822923    0.000771723
   11          1          -0.000697057    0.000594756    0.001031890
   12          6          -0.000566013   -0.000702987   -0.000853525
   13          1          -0.000020739    0.000477108    0.000018071
   14          1           0.000781379   -0.001201209   -0.000382982
   15          8          -0.002309779   -0.000498050    0.001504483
   16          1           0.001427393    0.000611624    0.000011491
   17          1           0.001575302    0.000749061    0.000671296
   18          8           0.001993662   -0.003457863   -0.006333658
   19          1           0.001146175    0.000893513    0.000151658
   20          1          -0.002757287    0.001847794    0.006693463
   21          8          -0.010978598    0.007534012    0.015160532
   22          1           0.004783335   -0.004166925    0.000675544
   23          1           0.006132803   -0.003451934   -0.015982789
   24          1           0.000671743    0.006593431    0.002054159
 -------------------------------------------------------------------
 Cartesian Forces:  Max     0.024923712 RMS     0.006064794
 Leave Link  716 at Mon Jul 28 09:58:05 2008, MaxMem=  536870912 cpu:       0.0
 (Enter /usr/local/Chem-Apps/g03_d01/g03/l103.exe)

 GradGradGradGradGradGradGradGradGradGradGradGradGradGradGradGradGradGrad
 Berny optimization.
 Internal  Forces:  Max     0.017104705 RMS     0.003049295
 Search for a local minimum.
 Step number   1 out of a maximum of 123
 All quantities printed in internal units (Hartrees-Bohrs-Radians)
 Swaping is turned off.
 Second derivative matrix not updated -- first step.
     Eigenvalues ---    0.00230   0.00230   0.00230   0.00424   0.00590
     Eigenvalues ---    0.00696   0.00809   0.01191   0.01296   0.01618
     Eigenvalues ---    0.02503   0.02895   0.02910   0.02911   0.03044
     Eigenvalues ---    0.03867   0.04236   0.04364   0.04674   0.05676
     Eigenvalues ---    0.05933   0.06604   0.06764   0.07355   0.09010
     Eigenvalues ---    0.09198   0.10055   0.10987   0.12672   0.12793
     Eigenvalues ---    0.14749   0.15280   0.15802   0.16000   0.16000
     Eigenvalues ---    0.16000   0.16000   0.16000   0.17253   0.17515
     Eigenvalues ---    0.20017   0.21995   0.22000   0.22024   0.22063
     Eigenvalues ---    0.25000   0.25000   0.31829   0.32820   0.32940
     Eigenvalues ---    0.33002   0.33977   0.34042   0.34403   0.34674
     Eigenvalues ---    0.42459   0.42725   0.49914   0.50127   0.50399
     Eigenvalues ---    0.51425   0.53441   0.57679   0.58462   0.58688
     Eigenvalues ---    0.608571000.000001000.000001000.000001000.00000
     Eigenvalues --- 1000.000001000.000001000.000001000.000001000.00000
     Eigenvalues --- 1000.000001000.000001000.000001000.000001000.00000
     Eigenvalues --- 1000.000001000.000001000.000001000.000001000.00000
     Eigenvalues --- 1000.000001000.000001000.000001000.000001000.00000
     Eigenvalues --- 1000.000001000.000001000.000001000.000001000.00000
     Eigenvalues --- 1000.000001000.000001000.000001000.000001000.00000
     Eigenvalues --- 1000.000001000.000001000.000001000.000001000.00000
     Eigenvalues --- 1000.000001000.000001000.000001000.000001000.00000
     Eigenvalues --- 1000.000001000.000001000.00000
 Quadratic step=5.583D-01 exceeds max=3.000D-01 adjusted using Lamda=-4.267D-03.
 Angle between NR and scaled steps=  24.83 degrees.
 Angle between quadratic step and forces=  55.58 degrees.
 Linear search not attempted -- option 19 set.
 Iteration  1 RMS(Cart)=  0.05783416 RMS(Int)=  0.00402548
 Iteration  2 RMS(Cart)=  0.00383261 RMS(Int)=  0.00037551
 Iteration  3 RMS(Cart)=  0.00005230 RMS(Int)=  0.00037274
 Iteration  4 RMS(Cart)=  0.00000002 RMS(Int)=  0.00037274
 Variable       Old X    -DE/DX   Delta X   Delta X   Delta X     New X
                                 (Linear)    (Quad)   (Total)
    R1        2.09048  -0.00485   0.00000  -0.01451  -0.01451   2.07597
    R2        2.07259  -0.00143   0.00000  -0.00415  -0.00415   2.06844
    R3        2.82670  -0.00321   0.00000  -0.00965  -0.00965   2.81705
    R4        2.84458  -0.00131   0.00000  -0.00406  -0.00406   2.84052
    R5        1.95043  -0.00682   0.00000  -0.01589  -0.01589   1.93453
    R6        3.68003   0.00719   0.00000   0.04067   0.04067   3.72070
    R7        1.94710  -0.00642   0.00000  -0.01488  -0.01488   1.93222
    R8        2.94354  -0.00944   0.00000  -0.01650  -0.01633   2.92721
    R9        2.92672  -0.00438   0.00000  -0.00769  -0.00750   2.91922
   R10        3.80757  -0.00166   0.00000  -0.00498  -0.00498   3.80260
   R11        3.81300   0.00156   0.00000   0.03519   0.03512   3.84811
   R12        3.30053   0.00056   0.00000   0.00773   0.00773   3.30825
   R13        3.82672   0.00118   0.00000   0.03231   0.03226   3.85898
   R14        3.32428   0.00002   0.00000   0.00030   0.00030   3.32458
   R15        2.07369  -0.00115   0.00000  -0.00333  -0.00333   2.07036
   R16        2.52826  -0.00102   0.00000  -0.00175  -0.00175   2.52651
   R17        2.06207  -0.00033   0.00000  -0.00095  -0.00095   2.06112
   R18        2.06655  -0.00131   0.00000  -0.00375  -0.00375   2.06280
   R19        1.84077   0.00135   0.00000   0.00329   0.00313   1.84390
   R20        1.84250   0.00002   0.00000   0.00109   0.00094   1.84344
   R21        1.86652   0.00056   0.00000   0.00111   0.00111   1.86763
   R22        1.83245  -0.00677   0.00000  -0.01258  -0.01258   1.81987
   R23        1.85154   0.00579   0.00000   0.01118   0.01118   1.86272
   R24        1.78878   0.01710   0.00000   0.02905   0.02905   1.81783
    A1        1.90395  -0.00066   0.00000  -0.01396  -0.01414   1.88981
    A2        1.85965  -0.00207   0.00000  -0.01946  -0.01951   1.84014
    A3        1.93769   0.00130   0.00000   0.01267   0.01272   1.95041
    A4        1.86437  -0.00041   0.00000  -0.00180  -0.00194   1.86243
    A5        1.94529   0.00058   0.00000   0.01281   0.01277   1.95806
    A6        1.94928   0.00106   0.00000   0.00734   0.00732   1.95660
    A7        1.91491   0.00335   0.00000   0.02507   0.02464   1.93955
    A8        2.05729  -0.00504   0.00000  -0.02792  -0.02793   2.02936
    A9        1.92679   0.00214   0.00000   0.01370   0.01322   1.94001
   A10        1.85510  -0.00055   0.00000  -0.01513  -0.01490   1.84020
   A11        1.85033  -0.00014   0.00000   0.01677   0.01632   1.86666
   A12        1.84723   0.00047   0.00000  -0.00977  -0.00970   1.83753
   A13        1.69083  -0.00180   0.00000  -0.02721  -0.02682   1.66400
   A14        1.75353  -0.00334   0.00000  -0.03593  -0.03558   1.71794
   A15        1.80640  -0.00302   0.00000  -0.03838  -0.03799   1.76841
   A16        2.00826   0.00300   0.00000   0.02274   0.02139   2.02965
   A17        2.06242   0.00015   0.00000   0.01398   0.01178   2.07420
   A18        2.04822   0.00173   0.00000   0.02367   0.02144   2.06966
   A19        1.85301  -0.00023   0.00000  -0.00999  -0.00962   1.84338
   A20        2.15582  -0.00153   0.00000  -0.00214  -0.00233   2.15349
   A21        2.21481   0.00187   0.00000   0.01592   0.01568   2.23049
   A22        1.85019  -0.00054   0.00000  -0.00990  -0.00947   1.84073
   A23        2.21762  -0.00156   0.00000  -0.00437  -0.00460   2.21302
   A24        2.17818   0.00208   0.00000   0.01663   0.01642   2.19460
   A25        2.02716   0.00013   0.00000   0.00186   0.00185   2.02901
   A26        2.16441   0.00132   0.00000   0.00586   0.00586   2.17027
   A27        2.09159  -0.00145   0.00000  -0.00775  -0.00775   2.08384
   A28        2.11751   0.00059   0.00000   0.00365   0.00363   2.12115
   A29        2.12214  -0.00060   0.00000  -0.00363  -0.00364   2.11850
   A30        2.04339   0.00002   0.00000   0.00014   0.00013   2.04352
   A31        1.72589  -0.00048   0.00000   0.00290   0.00251   1.72840
   A32        2.56386  -0.00061   0.00000  -0.00237  -0.00252   2.56134
   A33        2.56509  -0.00115   0.00000  -0.00310  -0.00322   2.56187
   A34        1.83388  -0.00570   0.00000  -0.03469  -0.03469   1.79919
   A35        3.01136   0.00461   0.00000   0.01813   0.01813   3.02949
   A36        1.84294  -0.00611   0.00000  -0.03720  -0.03720   1.80574
   A37        3.10095   0.00265   0.00000   0.01043   0.01043   3.11138
    D1        3.06503  -0.00234   0.00000  -0.00917  -0.00936   3.05567
    D2        0.93963  -0.00065   0.00000   0.01113   0.01125   0.95088
    D3       -1.18512   0.00074   0.00000   0.03415   0.03441  -1.15071
    D4        1.03167  -0.00038   0.00000   0.01722   0.01692   1.04859
    D5       -1.09373   0.00132   0.00000   0.03752   0.03752  -1.05620
    D6        3.06470   0.00270   0.00000   0.06054   0.06069   3.12539
    D7       -1.09946  -0.00146   0.00000  -0.00187  -0.00214  -1.10160
    D8        3.05833   0.00023   0.00000   0.01843   0.01847   3.07679
    D9        0.93357   0.00162   0.00000   0.04145   0.04163   0.97521
   D10        1.00386  -0.00066   0.00000  -0.01500  -0.01501   0.98886
   D11       -2.13075  -0.00056   0.00000  -0.01024  -0.01023  -2.14099
   D12        3.13029  -0.00019   0.00000  -0.01507  -0.01510   3.11519
   D13       -0.00433  -0.00009   0.00000  -0.01030  -0.01032  -0.01465
   D14       -1.06898   0.00040   0.00000  -0.00371  -0.00369  -1.07267
   D15        2.07958   0.00049   0.00000   0.00105   0.00108   2.08067
   D16        2.88054   0.00155   0.00000   0.04240   0.04256   2.92311
   D17        0.83600  -0.00033   0.00000   0.03430   0.03429   0.87029
   D18       -1.28740   0.00021   0.00000   0.03671   0.03662  -1.25079
   D19        0.72481   0.00108   0.00000   0.04114   0.04115   0.76595
   D20       -1.31974  -0.00080   0.00000   0.03304   0.03288  -1.28686
   D21        2.84004  -0.00026   0.00000   0.03545   0.03520   2.87525
   D22       -1.23762   0.00126   0.00000   0.03297   0.03322  -1.20440
   D23        3.00102  -0.00061   0.00000   0.02487   0.02495   3.02597
   D24        0.87762  -0.00008   0.00000   0.02728   0.02728   0.90489
   D25       -1.83169   0.00061   0.00000   0.00679   0.00677  -1.82493
   D26        1.65247  -0.00014   0.00000  -0.00689  -0.00681   1.64566
   D27        0.00054  -0.00335   0.00000  -0.04225  -0.04266  -0.04212
   D28       -2.79848  -0.00410   0.00000  -0.05593  -0.05623  -2.85471
   D29        2.54303   0.00521   0.00000   0.06416   0.06419   2.60722
   D30       -0.25599   0.00446   0.00000   0.05048   0.05061  -0.20538
   D31        1.79357   0.00041   0.00000  -0.00244  -0.00244   1.79113
   D32       -1.62927   0.00077   0.00000   0.00900   0.00902  -1.62024
   D33        0.00008   0.00332   0.00000   0.04067   0.04112   0.04121
   D34        2.86043   0.00368   0.00000   0.05211   0.05259   2.91302
   D35       -2.54748  -0.00460   0.00000  -0.06137  -0.06198  -2.60946
   D36        0.31287  -0.00424   0.00000  -0.04993  -0.05051   0.26235
   D37       -0.01083   0.00140   0.00000   0.04562   0.04549   0.03467
   D38        2.77299   0.00128   0.00000   0.05496   0.05485   2.82784
   D39       -2.94311   0.00053   0.00000   0.06391   0.06399  -2.87912
   D40        0.61375   0.00025   0.00000   0.05355   0.05347   0.66722
   D41        0.00747  -0.00130   0.00000  -0.03783  -0.03771  -0.03024
   D42       -2.86101  -0.00091   0.00000  -0.04476  -0.04476  -2.90577
   D43        3.02185  -0.00037   0.00000  -0.06962  -0.06974   2.95211
   D44       -0.45064  -0.00049   0.00000  -0.06096  -0.06084  -0.51149
   D45        3.13407  -0.00023   0.00000  -0.00781  -0.00781   3.12626
   D46        0.01056  -0.00061   0.00000  -0.01919  -0.01919  -0.00863
   D47       -0.00031  -0.00013   0.00000  -0.00292  -0.00293  -0.00324
   D48       -3.12382  -0.00051   0.00000  -0.01430  -0.01431  -3.13813
   D49        0.01427   0.00073   0.00000  -0.02957  -0.02968  -0.01541
   D50       -0.01235  -0.00079   0.00000   0.02504   0.02518   0.01284
   D51       -2.99002   0.00051   0.00000   0.03129   0.03129  -2.95873
   D52        2.89601  -0.00077   0.00000  -0.04486  -0.04486   2.85115
         Item               Value     Threshold  Converged?
 Maximum Force            0.017105     0.000450     NO 
 RMS     Force            0.003049     0.000300     NO 
 Maximum Displacement     0.240775     0.001800     NO 
 RMS     Displacement     0.061042     0.001200     NO 
 Predicted change in Energy=-2.977912D-03
 GradGradGradGradGradGradGradGradGradGradGradGradGradGradGradGradGradGrad

 Leave Link  103 at Mon Jul 28 09:58:06 2008, MaxMem=  536870912 cpu:       2.3
 (Enter /usr/local/Chem-Apps/g03_d01/g03/l202.exe)
                          Input orientation:                          
 ---------------------------------------------------------------------
 Center     Atomic     Atomic              Coordinates (Angstroms)
 Number     Number      Type              X           Y           Z
 ---------------------------------------------------------------------
    1          6             0       -2.117191   -0.502221   -0.213199
    2          1             0       -2.011763   -0.218956   -1.269359
    3          1             0       -2.305985    0.405561    0.368498
    4          7             0       -0.775263   -1.003938    0.198802
    5          1             0       -0.752786   -1.218401    1.199544
    6         15             0        0.742434    0.211501   -0.110888
    7          8             0        1.748263   -0.591235    0.751298
    8          8             0        0.149676    1.483238    0.535398
    9         16             0        0.905831    0.136777   -2.115098
   10          6             0       -3.191631   -1.535153   -0.018122
   11          1             0       -3.081970   -2.462639   -0.590888
   12          6             0       -4.249943   -1.380526    0.784097
   13          1             0       -5.010783   -2.156057    0.880514
   14          1             0       -4.393036   -0.468696    1.366897
   15          8             0        1.680556    1.246748    2.996170
   16          1             0        1.956373    0.466890    2.478642
   17          1             0        1.053213    1.638535    2.360123
   18          8             0        3.464935   -2.508515   -0.174589
   19          1             0        2.835510   -1.795039    0.092863
   20          1             0        3.636599   -2.311638   -1.101522
   21          8             0       -1.258377    3.484289   -0.708238
   22          1             0       -0.748004    2.758586   -0.278707
   23          1             0       -0.938237    3.476713   -1.615325
   24          1             0       -0.535625   -1.865894   -0.296261
 ---------------------------------------------------------------------
                    Distance matrix (angstroms):
                    1          2          3          4          5
     1  C    0.000000
     2  H    1.098557   0.000000
     3  H    1.094570   1.777404   0.000000
     4  N    1.490717   2.073795   2.087725   0.000000
     5  H    2.090540   2.946082   2.395895   1.023712   0.000000
     6  P    2.949123   3.018767   3.091979   1.968909   2.448987
     7  O    3.984961   4.284792   4.192501   2.616058   2.617157
     8  O    3.105017   3.290355   2.686916   2.674856   2.924787
     9  S    3.628250   3.058459   4.068938   3.079194   3.946437
    10  C    1.503138   2.165654   2.167998   2.483562   2.744268
    11  H    2.217360   2.576777   3.122362   2.841183   3.190435
    12  C    2.512897   3.251981   2.672415   3.543698   3.525477
    13  H    3.507742   4.167546   3.760316   4.442043   4.371672
    14  H    2.770793   3.561275   2.473238   3.839168   3.720414
    15  O    5.270847   5.828915   4.848172   4.349932   3.902048
    16  H    4.977862   5.501272   4.756486   3.850044   3.437417
    17  H    4.610454   5.100734   4.095242   3.872634   3.573605
    18  O    5.931850   6.036127   6.487704   4.514693   4.619720
    19  H    5.127797   5.275959   5.599427   3.697937   3.799095
    20  H    6.096655   6.025900   6.697644   4.781782   5.075113
    21  O    4.107905   3.820533   3.425698   4.604378   5.100053
    22  H    3.537206   3.382933   2.895325   3.792802   4.242838
    23  H    4.380389   3.863952   3.903622   4.836719   5.477406
    24  H    2.089942   2.416259   2.955603   1.022488   1.644336
                    6          7          8          9         10
     6  P    0.000000
     7  O    1.549013   0.000000
     8  O    1.544785   2.627838   0.000000
     9  S    2.012247   3.075048   3.067549   0.000000
    10  C    4.305378   5.087784   4.536673   4.897127   0.000000
    11  H    4.691215   5.351146   5.223218   4.998273   1.095590
    12  C    5.315955   6.050003   5.255439   6.106516   1.336970
    13  H    6.299819   6.939025   6.324074   7.016915   2.121882
    14  H    5.386981   6.173292   5.013748   6.369369   2.121080
    15  O    3.406702   2.902106   2.907734   5.287466   6.368920
    16  H    2.871329   2.036334   2.841357   4.723881   6.061679
    17  H    2.870348   2.836069   2.042086   4.722774   5.809221
    18  O    3.848968   2.734994   5.237281   4.160788   6.729175
    19  H    2.906661   1.750652   4.261060   3.511505   6.033762
    20  H    3.965321   3.155715   5.407330   3.805150   6.957112
    21  O    3.882166   5.270676   2.744713   4.227160   5.422963
    22  H    2.955877   4.302739   1.759293   3.602968   4.947263
    23  H    3.968576   5.419077   3.127796   3.847795   5.722556
    24  H    2.446093   2.817496   3.518236   3.065396   2.690933
                   11         12         13         14         15
    11  H    0.000000
    12  C    2.103738   0.000000
    13  H    2.445268   1.090698   0.000000
    14  H    3.086684   1.091587   1.861549   0.000000
    15  O    7.021980   6.853222   7.799302   6.518114   0.000000
    16  H    6.587036   6.693488   7.614139   6.513546   0.975751
    17  H    6.528999   6.302543   7.304808   5.923559   0.975506
[...]
                 (A) (A) (A) (A) (A) (A) (A) (A) (A) (A) (A) (A)
                 (A) (A) (A) (A) (A) (A) (A) (A) (A) (A) (A) (A)
                 (A) (A) (A) (A) (A) (A) (A) (A) (A) (A) (A) (A)
                 (A) (A) (A) (A) (A) (A) (A) (A) (A) (A) (A) (A)
                 (A) (A) (A) (A) (A) (A) (A) (A) (A) (A) (A) (A)
                 (A) (A) (A) (A) (A) (A) (A) (A) (A) (A) (A) (A)
                 (A) (A) (A) (A) (A) (A) (A) (A) (A) (A) (A) (A)
                 (A) (A) (A) (A) (A) (A) (A) (A) (A) (A) (A) (A)
                 (A) (A) (A) (A) (A) (A) (A) (A) (A) (A) (A) (A)
                 (A) (A) (A) (A) (A) (A) (A) (A) (A) (A) (A) (A)
                 (A) (A) (A) (A) (A) (A) (A) (A) (A) (A) (A) (A)
                 (A) (A) (A) (A) (A) (A) (A) (A) (A) (A) (A) (A)
                 (A) (A) (A) (A) (A) (A) (A) (A) (A) (A) (A) (A)
                 (A) (A) (A) (A) (A) (A) (A) (A) (A) (A) (A) (A)
                 (A) (A) (A) (A) (A) (A) (A) (A) (A) (A) (A) (A)
                 (A) (A) (A) (A) (A) (A) (A) (A) (A) (A) (A) (A)
                 (A) (A) (A) (A) (A) (A) (A) (A) (A) (A) (A) (A)
                 (A) (A) (A) (A) (A) (A) (A) (A) (A) (A) (A) (A)
                 (A) (A) (A) (A) (A) (A) (A) (A) (A) (A) (A) (A)
                 (A) (A) (A) (A) (A) (A) (A) (A) (A) (A) (A) (A)
                 (A) (A) (A) (A) (A) (A) (A) (A) (A) (A) (A) (A)
                 (A) (A) (A) (A) (A) (A) (A) (A) (A) (A) (A) (A)
                 (A) (A) (A) (A) (A) (A) (A) (A) (A)
 The electronic state is 1-A.
 Alpha  occ. eigenvalues --  -88.82514 -77.14415 -19.13952 -19.13929 -19.12667
 Alpha  occ. eigenvalues --  -19.10663 -19.10567 -14.38576 -10.22499 -10.19964
 Alpha  occ. eigenvalues --  -10.18933  -7.88571  -6.61764  -5.85019  -5.84350
 Alpha  occ. eigenvalues --   -5.84275  -4.78216  -4.77775  -4.77732  -1.00804
 Alpha  occ. eigenvalues --   -1.00259  -0.99077  -0.98065  -0.93558  -0.92802
 Alpha  occ. eigenvalues --   -0.78897  -0.68800  -0.68446  -0.57651  -0.54624
 Alpha  occ. eigenvalues --   -0.51914  -0.50955  -0.50732  -0.49785  -0.48989
 Alpha  occ. eigenvalues --   -0.45553  -0.44624  -0.41334  -0.41053  -0.39551
 Alpha  occ. eigenvalues --   -0.39170  -0.38619  -0.38142  -0.36408  -0.35623
 Alpha  occ. eigenvalues --   -0.31705  -0.30982  -0.30493  -0.29872  -0.29461
 Alpha  occ. eigenvalues --   -0.28412  -0.28374  -0.27199  -0.23097  -0.22125
 Alpha virt. eigenvalues --   -0.01758  -0.00740   0.01269   0.01476   0.01505
 Alpha virt. eigenvalues --    0.03259   0.03504   0.03745   0.04105   0.04797
 Alpha virt. eigenvalues --    0.05607   0.06523   0.06913   0.07530   0.08174
 Alpha virt. eigenvalues --    0.08494   0.08836   0.10123   0.10866   0.11268
 Alpha virt. eigenvalues --    0.11683   0.12620   0.12735   0.13220   0.13575
 Alpha virt. eigenvalues --    0.14377   0.14600   0.14983   0.15729   0.16020
 Alpha virt. eigenvalues --    0.16911   0.17210   0.17555   0.17795   0.18007
 Alpha virt. eigenvalues --    0.18522   0.18982   0.19576   0.19954   0.20714
 Alpha virt. eigenvalues --    0.20999   0.21265   0.21772   0.22086   0.22719
 Alpha virt. eigenvalues --    0.23112   0.23385   0.24554   0.24844   0.25250
 Alpha virt. eigenvalues --    0.26245   0.27022   0.27196   0.27986   0.29218
 Alpha virt. eigenvalues --    0.30309   0.31834   0.32247   0.32687   0.34052
 Alpha virt. eigenvalues --    0.34177   0.34675   0.35465   0.35805   0.37123
 Alpha virt. eigenvalues --    0.38400   0.38575   0.39358   0.40639   0.40826
 Alpha virt. eigenvalues --    0.42422   0.42700   0.43575   0.43663   0.44677
 Alpha virt. eigenvalues --    0.45860   0.46971   0.48548   0.48662   0.49237
 Alpha virt. eigenvalues --    0.50023   0.51079   0.51887   0.52929   0.53151
 Alpha virt. eigenvalues --    0.54983   0.55649   0.56253   0.57762   0.59105
 Alpha virt. eigenvalues --    0.59582   0.60507   0.60656   0.61595   0.62997
 Alpha virt. eigenvalues --    0.63815   0.65092   0.66059   0.67941   0.68963
 Alpha virt. eigenvalues --    0.70020   0.71676   0.72399   0.72618   0.73645
 Alpha virt. eigenvalues --    0.75595   0.75668   0.76644   0.77123   0.78269
 Alpha virt. eigenvalues --    0.78605   0.78903   0.79718   0.80585   0.81859
 Alpha virt. eigenvalues --    0.82855   0.84392   0.85267   0.86251   0.87214
 Alpha virt. eigenvalues --    0.87397   0.87973   0.88527   0.88947   0.89716
 Alpha virt. eigenvalues --    0.90694   0.92191   0.92721   0.93343   0.95528
 Alpha virt. eigenvalues --    0.96080   0.96333   0.98417   0.99503   1.00672
 Alpha virt. eigenvalues --    1.01733   1.02781   1.03489   1.04150   1.05101
 Alpha virt. eigenvalues --    1.05500   1.05967   1.07807   1.08319   1.09909
 Alpha virt. eigenvalues --    1.10777   1.11041   1.12202   1.13040   1.13690
 Alpha virt. eigenvalues --    1.14671   1.16403   1.16971   1.17079   1.18083
 Alpha virt. eigenvalues --    1.19245   1.19834   1.19934   1.21618   1.22111
 Alpha virt. eigenvalues --    1.23337   1.23921   1.25067   1.28198   1.29642
 Alpha virt. eigenvalues --    1.30141   1.31308   1.31669   1.33318   1.34369
 Alpha virt. eigenvalues --    1.34530   1.36754   1.36921   1.37380   1.39828
 Alpha virt. eigenvalues --    1.42220   1.44407   1.47957   1.49489   1.51124
 Alpha virt. eigenvalues --    1.52714   1.53195   1.54945   1.55384   1.55902
 Alpha virt. eigenvalues --    1.57206   1.57839   1.59222   1.60332   1.64264
 Alpha virt. eigenvalues --    1.65328   1.65934   1.67819   1.70786   1.72024
 Alpha virt. eigenvalues --    1.72869   1.75225   1.76071   1.77240   1.78416
 Alpha virt. eigenvalues --    1.78630   1.79533   1.79661   1.80814   1.81425
 Alpha virt. eigenvalues --    1.82396   1.83799   1.84465   1.85537   1.88232
 Alpha virt. eigenvalues --    1.88812   1.89878   1.90266   1.92173   1.93365
 Alpha virt. eigenvalues --    1.94993   1.97047   1.98813   2.00553   2.01163
 Alpha virt. eigenvalues --    2.02328   2.03110   2.07126   2.07801   2.08898
 Alpha virt. eigenvalues --    2.10417   2.13588   2.13997   2.14833   2.17526
 Alpha virt. eigenvalues --    2.19306   2.21267   2.25017   2.26640   2.28406
 Alpha virt. eigenvalues --    2.29875   2.33524   2.33851   2.36174   2.38603
 Alpha virt. eigenvalues --    2.39831   2.40693   2.42093   2.43713   2.44530
 Alpha virt. eigenvalues --    2.46400   2.47313   2.50158   2.51066   2.52616
 Alpha virt. eigenvalues --    2.54366   2.55505   2.56250   2.59273   2.62174
 Alpha virt. eigenvalues --    2.65317   2.68252   2.69142   2.71522   2.75462
 Alpha virt. eigenvalues --    2.80057   2.86556   2.87609   2.96773   3.09276
 Alpha virt. eigenvalues --    3.15829   3.19605   3.21546   3.22371   3.23110
 Alpha virt. eigenvalues --    3.25604   3.27686   3.29804   3.30961   3.33073
 Alpha virt. eigenvalues --    3.36265   3.37611   3.41175   3.45731   3.46770
 Alpha virt. eigenvalues --    3.49325   3.50096   3.55482   3.56224   3.60682
 Alpha virt. eigenvalues --    3.63241   3.66786   3.70161   3.71189   3.77077
 Alpha virt. eigenvalues --    3.78264   3.79869   3.83118   3.87207   4.89622
 Alpha virt. eigenvalues --    4.96878   5.05360   5.07469   5.22252   5.35878
 Alpha virt. eigenvalues --    5.38447   5.42417   5.47514   5.49896   5.50829
 Alpha virt. eigenvalues --    5.51717   5.55651   5.57251   5.58042   5.59570
 Alpha virt. eigenvalues --    5.69017   5.72088   6.84209   6.85049   6.86438
 Alpha virt. eigenvalues --    6.88734   6.93932   6.96209   7.02564   8.83741
 Alpha virt. eigenvalues --    8.93462   8.97441  10.09015  20.73839  20.77029
 Alpha virt. eigenvalues --   20.85330  20.97057  20.98472  35.14401  35.20441
 Alpha virt. eigenvalues --   35.25795  36.66813  36.79077  36.92326  36.95835
 Alpha virt. eigenvalues --   37.00196  37.02623  37.03111  37.03720  37.04503
 Alpha virt. eigenvalues --   37.05962  37.07204  37.15815  37.23421  59.03002
          Condensed to atoms (all electrons):
              1          2          3          4          5          6
     1  C    5.254456   0.391931   0.398115   0.197259  -0.033466  -0.079698
     2  H    0.391931   0.437035  -0.010276  -0.008041   0.001707   0.001891
     3  H    0.398115  -0.010276   0.476944  -0.021696  -0.002790  -0.002749
     4  N    0.197259  -0.008041  -0.021696   6.650349   0.381039   0.080298
     5  H   -0.033466   0.001707  -0.002790   0.381039   0.378578  -0.025287
     6  P   -0.079698   0.001891  -0.002749   0.080298  -0.025287  13.102037
     7  O    0.020149   0.001094   0.000385  -0.043359   0.002727   0.105399
     8  O    0.006987   0.000183  -0.000923   0.004525  -0.003212   0.085752
     9  S   -0.000127   0.002196  -0.000925   0.024976   0.001902   0.451192
    10  C    0.265076  -0.050744  -0.036501  -0.069044   0.002904   0.006619
    11  H   -0.023959   0.000087   0.001995  -0.000193  -0.000211  -0.001039
    12  C   -0.093975   0.010811  -0.008153   0.029282   0.001306   0.003631
    13  H    0.003892  -0.000055   0.000051  -0.001302   0.000001   0.000070
    14  H   -0.006873   0.000047   0.003692  -0.000513   0.000023  -0.000159
    15  O   -0.015490  -0.000236   0.000544  -0.004985   0.017206  -0.026910
    16  H    0.002012   0.000001  -0.000007  -0.001764  -0.000630   0.017835
    17  H    0.000745   0.000002  -0.000028  -0.001346  -0.000794   0.020679
    18  O   -0.001137   0.000297  -0.000201  -0.016752   0.000289  -0.014768
    19  H   -0.001338  -0.000006   0.000001  -0.001621   0.000006   0.018845
    20  H   -0.002019  -0.000012   0.000001   0.002964   0.000020   0.018159
    21  O   -0.007250  -0.001936   0.004543  -0.006685  -0.000029  -0.002558
    22  H   -0.001837   0.000032   0.000337   0.000974  -0.000002   0.012368
    23  H    0.002757  -0.000012  -0.000162  -0.000628   0.000001   0.010686
    24  H   -0.044963  -0.002132   0.001947   0.387812  -0.004514  -0.015828
              7          8          9         10         11         12
     1  C    0.020149   0.006987  -0.000127   0.265076  -0.023959  -0.093975
     2  H    0.001094   0.000183   0.002196  -0.050744   0.000087   0.010811
     3  H    0.000385  -0.000923  -0.000925  -0.036501   0.001995  -0.008153
     4  N   -0.043359   0.004525   0.024976  -0.069044  -0.000193   0.029282
     5  H    0.002727  -0.003212   0.001902   0.002904  -0.000211   0.001306
     6  P    0.105399   0.085752   0.451192   0.006619  -0.001039   0.003631
     7  O    9.033196  -0.073456  -0.006914  -0.005494  -0.000033   0.000849
     8  O   -0.073456   8.982861  -0.007714  -0.006758  -0.000068   0.002090
     9  S   -0.006914  -0.007714  16.206914   0.000525   0.000260   0.000594
    10  C   -0.005494  -0.006758   0.000525   5.036703   0.405355   0.222378
    11  H   -0.000033  -0.000068   0.000260   0.405355   0.478385  -0.019566
    12  C    0.000849   0.002090   0.000594   0.222378  -0.019566   5.609194
    13  H   -0.000002  -0.000007   0.000014   0.011846  -0.003483   0.380381
    14  H   -0.000002  -0.000088  -0.000037   0.013031   0.001974   0.374001
    15  O   -0.031007  -0.034750   0.000235   0.010312  -0.000071   0.000834
    16  H    0.009855  -0.001864  -0.000788  -0.000908   0.000000  -0.000012
    17  H   -0.000723   0.008944  -0.000870  -0.000699   0.000000  -0.000047
    18  O   -0.050665  -0.003435  -0.017937  -0.000687   0.000057  -0.003777
    19  H    0.019509   0.000197  -0.004974   0.000446  -0.000001   0.000122
    20  H    0.002753  -0.000342   0.004282  -0.000150  -0.000004   0.000128
    21  O   -0.000857  -0.043286  -0.014287  -0.004661  -0.000037  -0.000981
    22  H    0.000107   0.025810  -0.005408   0.001341   0.000000  -0.000137
    23  H   -0.000169   0.002882   0.005444   0.002058   0.000000  -0.000076
    24  H   -0.006262   0.001127  -0.002610   0.004833   0.000089   0.000248
             13         14         15         16         17         18
     1  C    0.003892  -0.006873  -0.015490   0.002012   0.000745  -0.001137
     2  H   -0.000055   0.000047  -0.000236   0.000001   0.000002   0.000297
     3  H    0.000051   0.003692   0.000544  -0.000007  -0.000028  -0.000201
     4  N   -0.001302  -0.000513  -0.004985  -0.001764  -0.001346  -0.016752
     5  H    0.000001   0.000023   0.017206  -0.000630  -0.000794   0.000289
     6  P    0.000070  -0.000159  -0.026910   0.017835   0.020679  -0.014768
     7  O   -0.000002  -0.000002  -0.031007   0.009855  -0.000723  -0.050665
     8  O   -0.000007  -0.000088  -0.034750  -0.001864   0.008944  -0.003435
     9  S    0.000014  -0.000037   0.000235  -0.000788  -0.000870  -0.017937
    10  C    0.011846   0.013031   0.010312  -0.000908  -0.000699  -0.000687
    11  H   -0.003483   0.001974  -0.000071   0.000000   0.000000   0.000057
    12  C    0.380381   0.374001   0.000834  -0.000012  -0.000047  -0.003777
    13  H    0.485279  -0.023941  -0.000005   0.000000   0.000000   0.000000
    14  H   -0.023941   0.495702  -0.000013   0.000000   0.000000   0.000002
    15  O   -0.000005  -0.000013   8.100960   0.292818   0.290975  -0.000391
    16  H    0.000000   0.000000   0.292818   0.389996  -0.011561  -0.000206
    17  H    0.000000   0.000000   0.290975  -0.011561   0.390422  -0.000023
    18  O    0.000000   0.000002  -0.000391  -0.000206  -0.000023   8.123932
    19  H    0.000000   0.000000  -0.000278   0.000014   0.000004   0.285988
    20  H    0.000000   0.000000  -0.000031   0.000000   0.000000   0.291112
    21  O    0.000001  -0.000017  -0.000456  -0.000015   0.000067  -0.000105
    22  H    0.000000   0.000000   0.000051   0.000001   0.000023   0.000003
    23  H    0.000000   0.000000  -0.000005   0.000000   0.000000  -0.000001
    24  H   -0.000001   0.000003  -0.000218   0.000031   0.000049   0.020852
             19         20         21         22         23         24
     1  C   -0.001338  -0.002019  -0.007250  -0.001837   0.002757  -0.044963
     2  H   -0.000006  -0.000012  -0.001936   0.000032  -0.000012  -0.002132
     3  H    0.000001   0.000001   0.004543   0.000337  -0.000162   0.001947
     4  N   -0.001621   0.002964  -0.006685   0.000974  -0.000628   0.387812
     5  H    0.000006   0.000020  -0.000029  -0.000002   0.000001  -0.004514
     6  P    0.018845   0.018159  -0.002558   0.012368   0.010686  -0.015828
     7  O    0.019509   0.002753  -0.000857   0.000107  -0.000169  -0.006262
     8  O    0.000197  -0.000342  -0.043286   0.025810   0.002882   0.001127
     9  S   -0.004974   0.004282  -0.014287  -0.005408   0.005444  -0.002610
    10  C    0.000446  -0.000150  -0.004661   0.001341   0.002058   0.004833
    11  H   -0.000001  -0.000004  -0.000037   0.000000   0.000000   0.000089
    12  C    0.000122   0.000128  -0.000981  -0.000137  -0.000076   0.000248
    13  H    0.000000   0.000000   0.000001   0.000000   0.000000  -0.000001
    14  H    0.000000   0.000000  -0.000017   0.000000   0.000000   0.000003
    15  O   -0.000278  -0.000031  -0.000456   0.000051  -0.000005  -0.000218
    16  H    0.000014   0.000000  -0.000015   0.000001   0.000000   0.000031
    17  H    0.000004   0.000000   0.000067   0.000023   0.000000   0.000049
    18  O    0.285988   0.291112  -0.000105   0.000003  -0.000001   0.020852
    19  H    0.356363  -0.011348   0.000001   0.000000   0.000000  -0.001041
    20  H   -0.011348   0.411447  -0.000002   0.000000   0.000000  -0.000963
    21  O    0.000001  -0.000002   8.124300   0.285175   0.290728   0.000058
    22  H    0.000000   0.000000   0.285175   0.357281  -0.013248  -0.000002
    23  H    0.000000   0.000000   0.290728  -0.013248   0.427527   0.000000
    24  H   -0.001041  -0.000963   0.000058  -0.000002   0.000000   0.371543
 Mulliken atomic charges:
              1
     1  C   -0.231246
     2  H    0.226138
     3  H    0.195856
     4  N   -0.581548
     5  H    0.283228
     6  P    1.233537
     7  O   -0.977079
     8  O   -0.945456
     9  S   -0.635946
    10  C    0.192219
    11  H    0.160462
    12  C   -0.509125
    13  H    0.147260
    14  H    0.143170
    15  O   -0.599087
    16  H    0.305192
    17  H    0.304179
    18  O   -0.612448
    19  H    0.339112
    20  H    0.284007
    21  O   -0.621712
    22  H    0.337131
    23  H    0.272215
    24  H    0.289940
 Sum of Mulliken charges=  -1.00000
 Atomic charges with hydrogens summed into heavy atoms:
              1
     1  C    0.190748
     2  H    0.000000
     3  H    0.000000
     4  N   -0.008380
     5  H    0.000000
     6  P    1.233537
     7  O   -0.977079
     8  O   -0.945456
     9  S   -0.635946
    10  C    0.352681
    11  H    0.000000
    12  C   -0.218695
    13  H    0.000000
    14  H    0.000000
    15  O    0.010284
    16  H    0.000000
    17  H    0.000000
    18  O    0.010671
    19  H    0.000000
    20  H    0.000000
    21  O   -0.012365
    22  H    0.000000
    23  H    0.000000
    24  H    0.000000
 Sum of Mulliken charges=  -1.00000
 Electronic spatial extent (au):  <R**2>=  2973.9426
 Charge=    -1.0000 electrons
 Dipole moment (field-independent basis, Debye):
    X=    -8.1007    Y=    -3.2011    Z=    -3.3762  Tot=     9.3417
 Quadrupole moment (field-independent basis, Debye-Ang):
   XX=   -98.2074   YY=  -121.4937   ZZ=  -105.0856
   XY=     5.4577   XZ=     3.7970   YZ=     0.1743
 Traceless Quadrupole moment (field-independent basis, Debye-Ang):
   XX=    10.0548   YY=   -13.2315   ZZ=     3.1767
   XY=     5.4577   XZ=     3.7970   YZ=     0.1743
 Octapole moment (field-independent basis, Debye-Ang**2):
  XXX=   -49.0810  YYY=   -49.9945  ZZZ=   -30.2107  XYY=    -8.0515
  XXY=    -7.2029  XXZ=    10.2345  XZZ=    -4.2878  YZZ=    16.1776
  YYZ=    -0.3064  XYZ=    -8.1008
 Hexadecapole moment (field-independent basis, Debye-Ang**3):
 XXXX= -1810.5126 YYYY= -1652.2614 ZZZZ= -1081.3215 XXXY=    16.1544
 XXXZ=     6.7303 YYYX=    71.3656 YYYZ=  -108.3954 ZZZX=    16.2762
 ZZZY=    82.1680 XXYY=  -544.8022 XXZZ=  -496.3856 YYZZ=  -397.7016
 XXYZ=    33.4513 YYXZ=    33.7015 ZZXY=   -20.5250
 N-N= 9.303576315569D+02 E-N=-4.934769738159D+03  KE= 1.287550437605D+03
 Calculating spin-rotation constants.
 Leave Link  601 at Mon Jul 28 13:25:38 2008, MaxMem= 1073741824 cpu:     119.3
 (Enter /usr/local/Chem-Apps/g03_d01/g03/l9999.exe)
 1\1\ SGI ALTIX 4700 1.6GHZ/9MB-MAGELLAN\SP\RB3LYP\Gen\C3H13N1O5P1S1(1-
 )\IK1\28-Jul-2008\0\\#p nmr=giao b3lyp/Gen scf=tight integral=(grid=ul
 trafine) guess=read scrf=(pcm,solvent=water,read) geom=checkpoint\\Mol
 ecule 2, NMR.\\-1,1\C,0,-1.6626788404,-0.5026021571,-0.2321441151\H,0,
 -1.4978564435,-0.498583126,-1.3187961475\H,0,-2.0090780268,0.498578847
 7,0.0487772223\N,0,-0.3311238284,-0.708435601,0.3808751928\H,0,-0.3658
 497395,-0.6665251278,1.4071817358\P,0,1.0862166136,0.6563230599,-0.048
 6163542\O,0,2.2172780049,-0.0867585996,0.7067523587\O,0,0.453711633,1.
 8783922864,0.6527846437\S,0,1.1197794292,0.6191440853,-2.0671756906\C,
 0,-2.6492544119,-1.5631800209,0.1674164622\H,0,-2.3658447745,-2.597124
 3554,-0.0588372202\C,0,-3.8249351439,-1.3217608416,0.75730646\H,0,-4.5
 125448228,-2.1293795403,1.0120305873\H,0,-4.1387857084,-0.305047413,1.
 00224368\O,0,0.603000434,0.3299336506,3.0963181896\H,0,1.4101914614,0.
 0374036362,2.6314368968\H,0,0.4052498862,1.1354380641,2.5801511298\O,0
 ,1.8734948553,-2.5321573182,-0.5392204997\H,0,2.2172902423,-1.76219010
 25,-0.0232644966\H,0,1.8317850155,-2.1496964859,-1.4290939853\O,0,-1.3
 957883903,3.0867287425,-1.0764778844\H,0,-0.7738359181,2.7895092606,-0
 .375419571\H,0,-0.9911579757,2.6800130856,-1.8559197863\H,0,0.10353283
 32,-1.598093178,0.1023434145\\Version=IA64L-G03RevD.01\State=1-A\HF=-1
 293.033015\RMSD=4.046e-09\Thermal=0.\Dipole=-2.7212726,-2.4698634,-0.0
 480751\PG=C01 [X(C3H13N1O5P1S1)]\\@


 WHERE THERE IS MUCH DESIRE TO LEARN, THERE OF NECESSITY WILL BE
 MUCH ARGUING, MUCH WRITING, MANY OPINIONS; FOR OPINION IN GOOD MEN
 IS BUT KNOWLEDGE IN THE MAKING. -- JOHN MILTON.
 Job cpu time:  0 days  0 hours 42 minutes  0.6 seconds.
 File lengths (MBytes):  RWF=   1313 Int=      0 D2E=      0 Chk=     21 Scr=      1
 Normal termination of Gaussian 03 at Mon Jul 28 13:25:39 2008.
