 Entering Gaussian System, Link 0=/usr/local/Chem-Apps/g03_d01/g03/g03
 Initial command:
 /usr/local/Chem-Apps/g03_d01/g03/l1.exe /scratch/LSF_69153/Gau-16037.inp -scrdir=/scratch/LSF_69153/
 Entering Link 1 = /usr/local/Chem-Apps/g03_d01/g03/l1.exe PID=     16038.
  
 Copyright (c) 1988,1990,1992,1993,1995,1998,2003,2004, Gaussian, Inc.
                  All Rights Reserved.
  
 This is the Gaussian(R) 03 program.  It is based on the
 the Gaussian(R) 98 system (copyright 1998, Gaussian, Inc.),
 the Gaussian(R) 94 system (copyright 1995, Gaussian, Inc.),
 the Gaussian 92(TM) system (copyright 1992, Gaussian, Inc.),
 the Gaussian 90(TM) system (copyright 1990, Gaussian, Inc.),
 the Gaussian 88(TM) system (copyright 1988, Gaussian, Inc.),
 the Gaussian 86(TM) system (copyright 1986, Carnegie Mellon
 University), and the Gaussian 82(TM) system (copyright 1983,
 Carnegie Mellon University). Gaussian is a federally registered
 trademark of Gaussian, Inc.
  
 This software contains proprietary and confidential information,
 including trade secrets, belonging to Gaussian, Inc.
  
 This software is provided under written license and may be
 used, copied, transmitted, or stored only in accord with that
 written license.
  
 The following legend is applicable only to US Government
 contracts under FAR:
  
                    RESTRICTED RIGHTS LEGEND
  
 Use, reproduction and disclosure by the US Government is
 subject to restrictions as set forth in subparagraphs (a)
 and (c) of the Commercial Computer Software - Restricted
 Rights clause in FAR 52.227-19.
  
 Gaussian, Inc.
 340 Quinnipiac St., Bldg. 40, Wallingford CT 06492
  
  
 ---------------------------------------------------------------
 Warning -- This program may not be used in any manner that
 competes with the business of Gaussian, Inc. or will provide
 assistance to any competitor of Gaussian, Inc.  The licensee
 of this program is prohibited from giving any competitor of
 Gaussian, Inc. access to this program.  By using this program,
 the user acknowledges that Gaussian, Inc. is engaged in the
 business of creating and licensing software in the field of
 computational chemistry and represents and warrants to the
 licensee that it is not a competitor of Gaussian, Inc. and that
 it will not use this program in any manner prohibited above.
 ---------------------------------------------------------------
  

 Cite this work as:
 Gaussian 03, Revision D.01,
 M. J. Frisch, G. W. Trucks, H. B. Schlegel, G. E. Scuseria, 
 M. A. Robb, J. R. Cheeseman, J. A. Montgomery, Jr., T. Vreven, 
 K. N. Kudin, J. C. Burant, J. M. Millam, S. S. Iyengar, J. Tomasi, 
 V. Barone, B. Mennucci, M. Cossi, G. Scalmani, N. Rega, 
 G. A. Petersson, H. Nakatsuji, M. Hada, M. Ehara, K. Toyota, 
 R. Fukuda, J. Hasegawa, M. Ishida, T. Nakajima, Y. Honda, O. Kitao, 
 H. Nakai, M. Klene, X. Li, J. E. Knox, H. P. Hratchian, J. B. Cross, 
 V. Bakken, C. Adamo, J. Jaramillo, R. Gomperts, R. E. Stratmann, 
 O. Yazyev, A. J. Austin, R. Cammi, C. Pomelli, J. W. Ochterski, 
 P. Y. Ayala, K. Morokuma, G. A. Voth, P. Salvador, J. J. Dannenberg, 
 V. G. Zakrzewski, S. Dapprich, A. D. Daniels, M. C. Strain, 
 O. Farkas, D. K. Malick, A. D. Rabuck, K. Raghavachari, 
 J. B. Foresman, J. V. Ortiz, Q. Cui, A. G. Baboul, S. Clifford, 
 J. Cioslowski, B. B. Stefanov, G. Liu, A. Liashenko, P. Piskorz, 
 I. Komaromi, R. L. Martin, D. J. Fox, T. Keith, M. A. Al-Laham, 
 C. Y. Peng, A. Nanayakkara, M. Challacombe, P. M. W. Gill, 
 B. Johnson, W. Chen, M. W. Wong, C. Gonzalez, and J. A. Pople, 
 Gaussian, Inc., Wallingford CT, 2004.
 
 ******************************************
 Gaussian 03:  IA64L-G03RevD.01 13-Oct-2005
                 3-Aug-2008 
 ******************************************
 %Mem=4GB
 %NProcShared=16
 Will use up to   16 processors via shared memory.
 %Chk=molecule_12.chk
 Default route:  MaxDisk=64GB Cachesize=589840
 ------------------------------------------------------------------
 #p opt=gdiis b3lyp/aug-cc-pVDZ scf=tight integral=(grid=ultrafine)
 ------------------------------------------------------------------
 1/4=589840,14=-1,18=20,19=11,26=3,38=1/1,3;
 2/4=589840,9=110,17=6,18=5,40=1/2;
 3/4=589840,5=16,7=10,11=2,16=1,25=1,30=1,74=-5,75=5/1,2,3;
 4/4=589840/1;
 5/4=589840,5=2,32=2,38=5/2;
 6/4=589840,7=2,8=2,9=2,10=2,28=1/1;
 7/4=589840/1,2,3,16;
 1/4=589840,14=-1,18=20,19=11/3(3);
 2/4=589840,9=110/2;
 6/4=589840,7=2,8=2,9=2,10=2,19=2,28=1/1;
 99/4=589840/99;
 2/4=589840,9=110/2;
 3/4=589840,5=16,7=10,11=2,16=1,25=1,30=1,74=-5,75=5/1,2,3;
 4/4=589840,5=5,16=3/1;
 5/4=589840,5=2,32=2,38=5/2;
 7/4=589840/1,2,3,16;
 1/4=589840,14=-1,18=20,19=11/3(-5);
 2/4=589840,9=110/2;
 6/4=589840,7=2,8=2,9=2,10=2,19=2,28=1/1;
 99/4=589840,9=1/99;
 Leave Link    1 at Sun Aug  3 13:13:36 2008, MaxMem=  536870912 cpu:       2.0
 (Enter /usr/local/Chem-Apps/g03_d01/g03/l101.exe)
 ----------------------
 Molecule 12, geometry.
 ----------------------
 Symbolic Z-matrix:
 Charge = -1 Multiplicity = 1
 P                    -2.12488  -0.07942  -0.18002 
 O                    -3.40405  -0.91589  -0.02294 
 O                    -2.15792   1.36652  -0.68868 
 N                    -1.00327  -0.97662  -1.12358 
 H                    -1.07969  -1.96995  -0.90474 
 S                    -1.14573  -0.1039    1.7982 
 C                     0.37634  -0.49403  -1.19741 
 H                     0.92342  -1.11353  -1.91954 
 H                     0.36197   0.53461  -1.57989 
 C                     0.54325   0.42726   1.21465 
 H                     1.16931   0.41854   2.11318 
 O                    -5.23461   1.23481  -0.94128 
 H                    -4.38346   1.69083  -1.03394 
 H                    -4.93442   0.36823  -0.61497 
 O                    -2.54004  -3.52351   0.21794 
 H                    -2.98397  -2.64514   0.12712 
 H                    -2.22549  -3.51508   1.12948 
 O                    -0.88386   3.57327   0.32998 
 H                    -1.35256   2.80367  -0.0722 
 H                    -1.33039   3.68402   1.17668 
 C                     1.09268  -0.52717   0.16409 
 H                     1.15665  -1.54934   0.55327 
 H                     0.48486   1.45432   0.8337 
 O                     2.46703  -0.20326  -0.06209 
 H                     3.01604  -0.95573   0.17022 
 
                    Isotopes and Nuclear Properties:
 (Nuclear quadrupole moments (NQMom) in fm**2, nuclear magnetic moments (NMagM)
  in nuclear magnetons)

  Atom         1           2           3           4           5           6           7           8           9          10
 IAtWgt=          31          16          16          14           1          32          12           1           1          12
 AtmWgt=  30.9737634  15.9949146  15.9949146  14.0030740   1.0078250  31.9720718  12.0000000   1.0078250   1.0078250  12.0000000
 NucSpn=           1           0           0           2           1           0           0           1           1           0
 AtZEff=   0.0000000   0.0000000   0.0000000   0.0000000   0.0000000   0.0000000   0.0000000   0.0000000   0.0000000   0.0000000
 NQMom=    0.0000000   0.0000000   0.0000000   2.0440000   0.0000000   0.0000000   0.0000000   0.0000000   0.0000000   0.0000000
 NMagM=    1.1316000   0.0000000   0.0000000   0.4037610   2.7928460   0.0000000   0.0000000   2.7928460   2.7928460   0.0000000

  Atom        11          12          13          14          15          16          17          18          19          20
 IAtWgt=           1          16           1           1          16           1           1          16           1           1
 AtmWgt=   1.0078250  15.9949146   1.0078250   1.0078250  15.9949146   1.0078250   1.0078250  15.9949146   1.0078250   1.0078250
 NucSpn=           1           0           1           1           0           1           1           0           1           1
 AtZEff=   0.0000000   0.0000000   0.0000000   0.0000000   0.0000000   0.0000000   0.0000000   0.0000000   0.0000000   0.0000000
 NQMom=    0.0000000   0.0000000   0.0000000   0.0000000   0.0000000   0.0000000   0.0000000   0.0000000   0.0000000   0.0000000
 NMagM=    2.7928460   0.0000000   2.7928460   2.7928460   0.0000000   2.7928460   2.7928460   0.0000000   2.7928460   2.7928460

  Atom        21          22          23          24          25
 IAtWgt=          12           1           1          16           1
 AtmWgt=  12.0000000   1.0078250   1.0078250  15.9949146   1.0078250
 NucSpn=           0           1           1           0           1
 AtZEff=   0.0000000   0.0000000   0.0000000   0.0000000   0.0000000
 NQMom=    0.0000000   0.0000000   0.0000000   0.0000000   0.0000000
 NMagM=    0.0000000   2.7928460   2.7928460   0.0000000   2.7928460
 Leave Link  101 at Sun Aug  3 13:13:36 2008, MaxMem=  536870912 cpu:       0.6
 (Enter /usr/local/Chem-Apps/g03_d01/g03/l103.exe)

 GradGradGradGradGradGradGradGradGradGradGradGradGradGradGradGradGradGrad
 Berny optimization.
 Initialization pass.
                           ----------------------------
                           !    Initial Parameters    !
                           ! (Angstroms and Degrees)  !
 --------------------------                            --------------------------
 ! Name  Definition              Value          Derivative Info.                !
 --------------------------------------------------------------------------------
 ! R1    R(1,2)                  1.5364         estimate D2E/DX2                !
 ! R2    R(1,3)                  1.5332         estimate D2E/DX2                !
 ! R3    R(1,4)                  1.7185         estimate D2E/DX2                !
 ! R4    R(1,6)                  2.2074         estimate D2E/DX2                !
 ! R5    R(2,14)                 2.0836         estimate D2E/DX2                !
 ! R6    R(2,16)                 1.7859         estimate D2E/DX2                !
 ! R7    R(3,13)                 2.2754         estimate D2E/DX2                !
 ! R8    R(3,19)                 1.759          estimate D2E/DX2                !
 ! R9    R(4,5)                  1.02           estimate D2E/DX2                !
 ! R10   R(4,7)                  1.4634         estimate D2E/DX2                !
 ! R11   R(6,10)                 1.8642         estimate D2E/DX2                !
 ! R12   R(7,8)                  1.0975         estimate D2E/DX2                !
 ! R13   R(7,9)                  1.0975         estimate D2E/DX2                !
 ! R14   R(7,21)                 1.5388         estimate D2E/DX2                !
 ! R15   R(10,11)                1.0952         estimate D2E/DX2                !
 ! R16   R(10,21)                1.522          estimate D2E/DX2                !
 ! R17   R(10,23)                1.097          estimate D2E/DX2                !
 ! R18   R(12,13)                0.97           estimate D2E/DX2                !
 ! R19   R(12,14)                0.9734         estimate D2E/DX2                !
 ! R20   R(15,16)                0.9884         estimate D2E/DX2                !
 ! R21   R(15,17)                0.9643         estimate D2E/DX2                !
 ! R22   R(18,19)                0.9868         estimate D2E/DX2                !
 ! R23   R(18,20)                0.9636         estimate D2E/DX2                !
 ! R24   R(21,22)                1.0956         estimate D2E/DX2                !
 ! R25   R(21,24)                1.43           estimate D2E/DX2                !
 ! R26   R(24,25)                0.96           estimate D2E/DX2                !
 ! A1    A(2,1,3)              121.9668         estimate D2E/DX2                !
 ! A2    A(2,1,4)              108.3778         estimate D2E/DX2                !
 ! A3    A(2,1,6)              105.7619         estimate D2E/DX2                !
 ! A4    A(3,1,4)              108.9221         estimate D2E/DX2                !
 ! A5    A(3,1,6)              108.5025         estimate D2E/DX2                !
 ! A6    A(4,1,6)              101.3475         estimate D2E/DX2                !
 ! A7    A(1,2,14)             104.2954         estimate D2E/DX2                !
 ! A8    A(1,2,16)             109.8719         estimate D2E/DX2                !
 ! A9    A(14,2,16)            142.504          estimate D2E/DX2                !
 ! A10   A(1,3,13)             101.8787         estimate D2E/DX2                !
 ! A11   A(1,3,19)             130.121          estimate D2E/DX2                !
 ! A12   A(13,3,19)            112.6161         estimate D2E/DX2                !
 ! A13   A(1,4,5)              109.982          estimate D2E/DX2                !
 ! A14   A(1,4,7)              118.087          estimate D2E/DX2                !
 ! A15   A(5,4,7)              113.7399         estimate D2E/DX2                !
 ! A16   A(1,6,10)              96.7878         estimate D2E/DX2                !
 ! A17   A(4,7,8)              108.4798         estimate D2E/DX2                !
 ! A18   A(4,7,9)              108.3182         estimate D2E/DX2                !
 ! A19   A(4,7,21)             112.7751         estimate D2E/DX2                !
 ! A20   A(8,7,9)              107.8333         estimate D2E/DX2                !
 ! A21   A(8,7,21)             109.7524         estimate D2E/DX2                !
 ! A22   A(9,7,21)             109.5491         estimate D2E/DX2                !
 ! A23   A(6,10,11)            105.001          estimate D2E/DX2                !
 ! A24   A(6,10,21)            111.374          estimate D2E/DX2                !
 ! A25   A(6,10,23)            109.1013         estimate D2E/DX2                !
 ! A26   A(11,10,21)           110.7908         estimate D2E/DX2                !
 ! A27   A(11,10,23)           108.8325         estimate D2E/DX2                !
 ! A28   A(21,10,23)           111.5075         estimate D2E/DX2                !
 ! A29   A(13,12,14)           100.3653         estimate D2E/DX2                !
 ! A30   A(3,13,12)            140.961          estimate D2E/DX2                !
 ! A31   A(2,14,12)            150.5046         estimate D2E/DX2                !
 ! A32   A(16,15,17)           103.0375         estimate D2E/DX2                !
 ! A33   A(2,16,15)            166.8854         estimate D2E/DX2                !
 ! A34   A(19,18,20)           103.1592         estimate D2E/DX2                !
 ! A35   A(7,21,10)            115.4146         estimate D2E/DX2                !
 ! A36   A(7,21,22)            111.1958         estimate D2E/DX2                !
 ! A37   A(7,21,24)            107.6125         estimate D2E/DX2                !
 ! A38   A(10,21,22)           111.1575         estimate D2E/DX2                !
 ! A39   A(10,21,24)           108.3051         estimate D2E/DX2                !
 ! A40   A(22,21,24)           102.2044         estimate D2E/DX2                !
 ! A41   A(21,24,25)           109.5            estimate D2E/DX2                !
 ! A42   L(3,19,18,20,-1)      177.6774         estimate D2E/DX2                !
 ! A43   L(3,19,18,20,-2)      174.7807         estimate D2E/DX2                !
 ! D1    D(3,1,2,14)            -0.488          estimate D2E/DX2                !
 ! D2    D(3,1,2,16)           163.8109         estimate D2E/DX2                !
 ! D3    D(4,1,2,14)          -128.0861         estimate D2E/DX2                !
 ! D4    D(4,1,2,16)            36.2127         estimate D2E/DX2                !
 ! D5    D(6,1,2,14)           123.9026         estimate D2E/DX2                !
 ! D6    D(6,1,2,16)           -71.7986         estimate D2E/DX2                !
 ! D7    D(2,1,3,13)             0.0773         estimate D2E/DX2                !
 ! D8    D(2,1,3,19)           133.7991         estimate D2E/DX2                !
 ! D9    D(4,1,3,13)           127.4359         estimate D2E/DX2                !
 ! D10   D(4,1,3,19)           -98.8423         estimate D2E/DX2                !
 ! D11   D(6,1,3,13)          -123.0491         estimate D2E/DX2                !
 ! D12   D(6,1,3,19)            10.6727         estimate D2E/DX2                !
 ! D13   D(2,1,4,5)            -35.9245         estimate D2E/DX2                !
 ! D14   D(2,1,4,7)           -168.737          estimate D2E/DX2                !
 ! D15   D(3,1,4,5)           -170.6442         estimate D2E/DX2                !
 ! D16   D(3,1,4,7)             56.5433         estimate D2E/DX2                !
 ! D17   D(6,1,4,5)             75.0908         estimate D2E/DX2                !
 ! D18   D(6,1,4,7)            -57.7217         estimate D2E/DX2                !
 ! D19   D(2,1,6,10)           162.0839         estimate D2E/DX2                !
 ! D20   D(3,1,6,10)           -65.4968         estimate D2E/DX2                !
 ! D21   D(4,1,6,10)            49.0812         estimate D2E/DX2                !
 ! D22   D(1,2,14,12)            0.0395         estimate D2E/DX2                !
 ! D23   D(16,2,14,12)        -155.2452         estimate D2E/DX2                !
 ! D24   D(1,2,16,15)            7.0576         estimate D2E/DX2                !
 ! D25   D(14,2,16,15)         161.5383         estimate D2E/DX2                !
 ! D26   D(1,3,13,12)            1.941          estimate D2E/DX2                !
 ! D27   D(19,3,13,12)        -141.2837         estimate D2E/DX2                !
 ! D28   D(1,3,18,20)          -66.8545         estimate D2E/DX2                !
 ! D29   D(13,3,18,20)          62.3815         estimate D2E/DX2                !
 ! D30   D(1,4,7,8)           -173.9297         estimate D2E/DX2                !
 ! D31   D(1,4,7,9)            -57.1359         estimate D2E/DX2                !
 ! D32   D(1,4,7,21)            64.2824         estimate D2E/DX2                !
 ! D33   D(5,4,7,8)             54.9343         estimate D2E/DX2                !
 ! D34   D(5,4,7,9)            171.7281         estimate D2E/DX2                !
 ! D35   D(5,4,7,21)           -66.8536         estimate D2E/DX2                !
 ! D36   D(1,6,10,11)         -177.6326         estimate D2E/DX2                !
 ! D37   D(1,6,10,21)          -57.6659         estimate D2E/DX2                !
 ! D38   D(1,6,10,23)           65.8505         estimate D2E/DX2                !
 ! D39   D(4,7,21,10)          -66.3197         estimate D2E/DX2                !
 ! D40   D(4,7,21,22)           61.4768         estimate D2E/DX2                !
 ! D41   D(4,7,21,24)          172.6382         estimate D2E/DX2                !
 ! D42   D(8,7,21,10)          172.6142         estimate D2E/DX2                !
 ! D43   D(8,7,21,22)          -59.5893         estimate D2E/DX2                !
 ! D44   D(8,7,21,24)           51.5721         estimate D2E/DX2                !
 ! D45   D(9,7,21,10)           54.3978         estimate D2E/DX2                !
 ! D46   D(9,7,21,22)         -177.8058         estimate D2E/DX2                !
 ! D47   D(9,7,21,24)          -66.6444         estimate D2E/DX2                !
 ! D48   D(6,10,21,7)           69.4625         estimate D2E/DX2                !
 ! D49   D(6,10,21,22)         -58.353          estimate D2E/DX2                !
 ! D50   D(6,10,21,24)        -169.8711         estimate D2E/DX2                !
 ! D51   D(11,10,21,7)        -174.056          estimate D2E/DX2                !
 ! D52   D(11,10,21,22)         58.1285         estimate D2E/DX2                !
 ! D53   D(11,10,21,24)        -53.3896         estimate D2E/DX2                !
 ! D54   D(23,10,21,7)         -52.6736         estimate D2E/DX2                !
 ! D55   D(23,10,21,22)        179.5108         estimate D2E/DX2                !
 ! D56   D(23,10,21,24)         67.9928         estimate D2E/DX2                !
 ! D57   D(14,12,13,3)          -2.1678         estimate D2E/DX2                !
 ! D58   D(13,12,14,2)           1.233          estimate D2E/DX2                !
 ! D59   D(17,15,16,2)          70.9838         estimate D2E/DX2                !
 ! D60   D(7,21,24,25)        -116.1674         estimate D2E/DX2                !
 ! D61   D(10,21,24,25)        118.4318         estimate D2E/DX2                !
 ! D62   D(22,21,24,25)          1.0116         estimate D2E/DX2                !
 --------------------------------------------------------------------------------
 Trust Radius=3.00D-01 FncErr=1.00D-07 GrdErr=1.00D-06
 Number of steps in this run= 141 maximum allowed number of steps= 150.
 GradGradGradGradGradGradGradGradGradGradGradGradGradGradGradGradGradGrad

 Leave Link  103 at Sun Aug  3 13:13:36 2008, MaxMem=  536870912 cpu:       0.2
 (Enter /usr/local/Chem-Apps/g03_d01/g03/l202.exe)
                          Input orientation:                          
 ---------------------------------------------------------------------
 Center     Atomic     Atomic              Coordinates (Angstroms)
 Number     Number      Type              X           Y           Z
 ---------------------------------------------------------------------
    1         15             0       -2.124875   -0.079420   -0.180016
    2          8             0       -3.404046   -0.915891   -0.022937
    3          8             0       -2.157919    1.366524   -0.688679
    4          7             0       -1.003266   -0.976619   -1.123582
    5          1             0       -1.079686   -1.969953   -0.904743
    6         16             0       -1.145730   -0.103900    1.798200
    7          6             0        0.376343   -0.494031   -1.197408
    8          1             0        0.923419   -1.113526   -1.919541
    9          1             0        0.361969    0.534607   -1.579889
   10          6             0        0.543248    0.427259    1.214654
   11          1             0        1.169310    0.418538    2.113179
   12          8             0       -5.234612    1.234814   -0.941284
   13          1             0       -4.383458    1.690827   -1.033937
   14          1             0       -4.934417    0.368225   -0.614968
   15          8             0       -2.540039   -3.523512    0.217935
   16          1             0       -2.983970   -2.645138    0.127118
   17          1             0       -2.225493   -3.515075    1.129475
   18          8             0       -0.883863    3.573274    0.329980
   19          1             0       -1.352561    2.803665   -0.072199
   20          1             0       -1.330388    3.684023    1.176679
   21          6             0        1.092681   -0.527169    0.164088
   22          1             0        1.156647   -1.549336    0.553269
   23          1             0        0.484856    1.454317    0.833703
   24          8             0        2.467026   -0.203257   -0.062093
   25          1             0        3.016037   -0.955729    0.170224
 ---------------------------------------------------------------------
                    Distance matrix (angstroms):
                    1          2          3          4          5
     1  P    0.000000
     2  O    1.536436   0.000000
     3  O    1.533161   2.684299   0.000000
     4  N    1.718514   2.641752   2.648147   0.000000
     5  H    2.278544   2.700237   3.513026   1.020021   0.000000
     6  S    2.207411   3.012617   3.061248   3.052662   3.285181
     7  C    2.731864   3.981041   3.184800   1.463442   2.093805
     8  H    3.658882   4.728966   4.142501   2.089117   2.403271
     9  H    2.919087   4.325611   2.799317   2.087076   2.967661
    10  C    3.052984   4.349346   3.435287   3.135271   3.587810
    11  H    4.044547   5.221042   4.451914   4.140431   4.457659
    12  O    3.460810   2.969826   3.089854   4.777861   5.247407
    13  H    2.994019   2.962490   2.275390   4.306855   4.932840
    14  H    2.878037   2.083624   2.951436   4.185838   4.517742
    15  O    3.491775   2.757574   4.988027   3.263128   2.409685
    16  H    2.723102   1.785854   4.176280   2.876003   2.268680
    17  H    3.678127   3.077791   5.209631   3.607473   2.799700
    18  O    3.891321   5.160279   2.744199   4.777931   5.682451
    19  H    2.986683   4.248072   1.758984   3.939284   4.853351
    20  H    4.078644   5.186361   3.087907   5.207667   6.030142
    21  C    3.266734   4.517371   3.857419   2.500619   2.818369
    22  H    3.669707   4.640386   4.585959   2.793753   2.702573
    23  H    3.192283   4.634143   3.051166   3.457589   4.146759
    24  O    4.595083   5.914293   4.924118   3.710495   4.050980
    25  H    5.226812   6.423112   5.735887   4.222460   4.354211
                    6          7          8          9         10
     6  S    0.000000
     7  C    3.382688   0.000000
     8  H    4.372908   1.097516   0.000000
     9  H    3.753976   1.097540   1.773959   0.000000
    10  C    1.864216   2.587407   3.513079   2.802473   0.000000
    11  H    2.394068   3.524424   4.320939   3.782066   1.095161
    12  O    5.100577   5.876846   6.662810   5.676251   6.219637
    13  H    4.661001   5.239850   6.067259   4.914670   5.561043
    14  H    4.516684   5.411737   6.181564   5.386136   5.775449
    15  O    4.016850   4.436917   4.729945   5.303032   5.109667
    16  H    3.553805   4.203966   4.669297   4.921378   4.802460
    17  H    3.639945   4.616345   4.997958   5.516841   4.818213
    18  O    3.968104   4.523716   5.503881   3.799104   3.566049
    19  H    3.463395   3.889730   4.892560   3.218908   3.301119
    20  H    3.843013   5.099545   6.138624   4.514594   3.757455
    21  C    2.803562   1.538801   2.171169   2.168586   1.522005
    22  H    2.989996   2.188016   2.521729   3.086210   2.172698
    23  H    2.452979   2.816602   3.790318   2.585806   1.096987
    24  O    4.064796   2.396757   2.580973   2.698038   2.393440
    25  H    4.549310   3.008582   2.961599   3.511136   3.019632
                   11         12         13         14         15
    11  H    0.000000
    12  O    7.141867   0.000000
    13  H    6.508171   0.970049   0.000000
    14  H    6.685866   0.973435   1.492772   0.000000
    15  O    5.735066   5.589828   5.670512   4.644609   0.000000
    16  H    5.529944   4.610954   4.701830   3.665418   0.988364
    17  H    5.288258   5.992018   6.036438   5.045926   0.964321
    18  O    4.165054   5.100345   4.201314   5.250929   7.288336
    19  H    4.101773   4.276321   3.368929   4.365279   6.444180
    20  H    4.217691   5.072214   4.263905   5.214743   7.370957
    21  C    2.167761   6.660411   6.028505   6.142847   4.709313
    22  H    2.511177   7.129753   6.611402   6.491755   4.204201
    23  H    1.782800   5.992585   5.219626   5.713735   5.857298
    24  O    2.608161   7.883923   7.173643   7.444032   6.014416
    25  H    3.012322   8.608550   7.950270   8.098092   6.120928
                   16         17         18         19         20
    16  H    0.000000
    17  H    1.528659   0.000000
    18  O    6.566601   7.258364   0.000000
    19  H    5.691281   6.490956   0.986774   0.000000
    20  H    6.625269   7.254685   0.963613   1.528142   0.000000
    21  C    4.594153   4.568351   4.554984   4.138779   4.962937
    22  H    4.304311   3.954114   5.518575   5.063196   5.827695
    23  H    5.416415   5.668186   2.572374   2.453059   2.895571
    24  O    5.975947   5.865808   5.064026   4.861165   5.573675
    25  H    6.233462   5.911349   5.978847   5.768576   6.436743
                   21         22         23         24         25
    21  C    0.000000
    22  H    1.095618   0.000000
    23  H    2.178101   3.090611   0.000000
    24  O    1.430000   1.976788   2.734776   0.000000
    25  H    1.970533   1.989076   3.557444   0.960000   0.000000
 Stoichiometry    C3H13NO6PS(1-)
 Framework group  C1[X(C3H13NO6PS)]
 Deg. of freedom    69
 Full point group                 C1
 Largest Abelian subgroup         C1      NOp   1
 Largest concise Abelian subgroup C1      NOp   1
                         Standard orientation:                         
 ---------------------------------------------------------------------
 Center     Atomic     Atomic              Coordinates (Angstroms)
 Number     Number      Type              X           Y           Z
 ---------------------------------------------------------------------
    1         15             0       -0.863638   -0.103111   -0.151591
    2          8             0       -2.072650   -0.992755    0.176223
    3          8             0       -1.027424    1.334955   -0.657283
    4          7             0        0.162715   -0.960005   -1.231230
    5          1             0        0.159884   -1.953517   -1.000215
    6         16             0        0.367440   -0.065566    1.680266
    7          6             0        1.497840   -0.418711   -1.488339
    8          1             0        1.972053   -1.020946   -2.273819
    9          1             0        1.387655    0.604516   -1.869732
   10          6             0        1.939703    0.532665    0.876891
   11          1             0        2.678332    0.559989    1.685011
   12          8             0       -4.101707    1.067279   -0.501309
   13          1             0       -3.291216    1.558890   -0.707266
   14          1             0       -3.723048    0.217799   -0.213947
   15          8             0       -1.069680   -3.557897    0.311547
   16          1             0       -1.560213   -2.700567    0.276536
   17          1             0       -0.638596   -3.526833    1.173589
   18          8             0        0.270485    3.604874    0.175500
   19          1             0       -0.212470    2.811715   -0.158230
   20          1             0       -0.065198    3.704460    1.073247
   21          6             0        2.387881   -0.407301   -0.233108
   22          1             0        2.547772   -1.421844    0.148358
   23          1             0        1.786198    1.552418    0.502828
   24          8             0        3.704779   -0.026256   -0.639904
   25          1             0        4.312412   -0.751853   -0.478999
 ---------------------------------------------------------------------
 Rotational constants (GHZ):      0.6890782      0.4972848      0.3662821
 Leave Link  202 at Sun Aug  3 13:13:36 2008, MaxMem=  536870912 cpu:       0.3
 (Enter /usr/local/Chem-Apps/g03_d01/g03/l301.exe)
 Standard basis: Aug-CC-pVDZ (5D, 7F)
 There are   401 symmetry adapted basis functions of A   symmetry.
 Integral buffers will be    131072 words long.
 Raffenetti 2 integral format.
 Two-electron integral symmetry is turned on.
   401 basis functions,   739 primitive gaussians,   425 cartesian basis functions
    59 alpha electrons       59 beta electrons
       nuclear repulsion energy      1077.0386186618 Hartrees.
 IExCor= 402 DFT=T Ex=B+HF Corr=LYP ExCW=0 ScaHFX=  0.200000
 ScaDFX=  0.800000  0.720000  1.000000  0.810000
 IRadAn=      5 IRanWt=     -1 IRanGd=            0 ICorTp=0
 NAtoms=   25 NActive=   25 NUniq=   25 SFac= 7.50D-01 NAtFMM=   80 NAOKFM=F Big=F
 Leave Link  301 at Sun Aug  3 13:13:36 2008, MaxMem=  536870912 cpu:       0.2
 (Enter /usr/local/Chem-Apps/g03_d01/g03/l302.exe)
 NPDir=0 NMtPBC=     1 NCelOv=     1 NCel=       1 NClECP=     1 NCelD=      1
         NCelK=      1 NCelE2=     1 NClLst=     1 CellRange=     0.0.
 One-electron integrals computed using PRISM.
 NBasis=   401 RedAO= T  NBF=   401
 NBsUse=   401 1.00D-06 NBFU=   401
 Precomputing XC quadrature grid using
 IXCGrd= 2 IRadAn=           5 IRanWt=          -1 IRanGd=           0.
 NRdTot=    2153 NPtTot=      581002 NUsed=      596174 NTot=      596206
 NSgBfM=   422   422   422   422.
 Leave Link  302 at Sun Aug  3 13:13:38 2008, MaxMem=  536870912 cpu:      14.7
 (Enter /usr/local/Chem-Apps/g03_d01/g03/l303.exe)
 DipDrv:  MaxL=1.
 Leave Link  303 at Sun Aug  3 13:13:38 2008, MaxMem=  536870912 cpu:       0.9
 (Enter /usr/local/Chem-Apps/g03_d01/g03/l401.exe)
 Harris functional with IExCor=  402 diagonalized for initial guess.
 ExpMin= 2.97D-02 ExpMax= 1.11D+05 ExpMxC= 3.24D+03 IAcc=3 IRadAn=         5 AccDes= 0.00D+00
 HarFok:  IExCor= 402 AccDes= 0.00D+00 IRadAn=         5 IDoV=1
 ScaDFX=  1.000000  1.000000  1.000000  1.000000
 Harris En= -1368.43569779915    
 Initial guess orbital symmetries:
       Occupied  (A) (A) (A) (A) (A) (A) (A) (A) (A) (A) (A) (A)
                 (A) (A) (A) (A) (A) (A) (A) (A) (A) (A) (A) (A)
                 (A) (A) (A) (A) (A) (A) (A) (A) (A) (A) (A) (A)
                 (A) (A) (A) (A) (A) (A) (A) (A) (A) (A) (A) (A)
                 (A) (A) (A) (A) (A) (A) (A) (A) (A) (A) (A)
       Virtual   (A) (A) (A) (A) (A) (A) (A) (A) (A) (A) (A) (A)
                 (A) (A) (A) (A) (A) (A) (A) (A) (A) (A) (A) (A)
                 (A) (A) (A) (A) (A) (A) (A) (A) (A) (A) (A) (A)
                 (A) (A) (A) (A) (A) (A) (A) (A) (A) (A) (A) (A)
                 (A) (A) (A) (A) (A) (A) (A) (A) (A) (A) (A) (A)
                 (A) (A) (A) (A) (A) (A) (A) (A) (A) (A) (A) (A)
                 (A) (A) (A) (A) (A) (A) (A) (A) (A) (A) (A) (A)
                 (A) (A) (A) (A) (A) (A) (A) (A) (A) (A) (A) (A)
                 (A) (A) (A) (A) (A) (A) (A) (A) (A) (A) (A) (A)
                 (A) (A) (A) (A) (A) (A) (A) (A) (A) (A) (A) (A)
                 (A) (A) (A) (A) (A) (A) (A) (A) (A) (A) (A) (A)
                 (A) (A) (A) (A) (A) (A) (A) (A) (A) (A) (A) (A)
                 (A) (A) (A) (A) (A) (A) (A) (A) (A) (A) (A) (A)
                 (A) (A) (A) (A) (A) (A) (A) (A) (A) (A) (A) (A)
                 (A) (A) (A) (A) (A) (A) (A) (A) (A) (A) (A) (A)
                 (A) (A) (A) (A) (A) (A) (A) (A) (A) (A) (A) (A)
                 (A) (A) (A) (A) (A) (A) (A) (A) (A) (A) (A) (A)
                 (A) (A) (A) (A) (A) (A) (A) (A) (A) (A) (A) (A)
                 (A) (A) (A) (A) (A) (A) (A) (A) (A) (A) (A) (A)
                 (A) (A) (A) (A) (A) (A) (A) (A) (A) (A) (A) (A)
                 (A) (A) (A) (A) (A) (A) (A) (A) (A) (A) (A) (A)
                 (A) (A) (A) (A) (A) (A) (A) (A) (A) (A) (A) (A)
                 (A) (A) (A) (A) (A) (A) (A) (A) (A) (A) (A) (A)
                 (A) (A) (A) (A) (A) (A) (A) (A) (A) (A) (A) (A)
                 (A) (A) (A) (A) (A) (A) (A) (A) (A) (A) (A) (A)
                 (A) (A) (A) (A) (A) (A) (A) (A) (A) (A) (A) (A)
                 (A) (A) (A) (A) (A) (A) (A) (A) (A) (A) (A) (A)
                 (A) (A) (A) (A) (A) (A) (A) (A) (A) (A) (A) (A)
                 (A) (A) (A) (A) (A) (A)
 The electronic state of the initial guess is 1-A.
 Leave Link  401 at Sun Aug  3 13:13:42 2008, MaxMem=  536870912 cpu:      58.3
 (Enter /usr/local/Chem-Apps/g03_d01/g03/l502.exe)
 Closed shell SCF:
 Requested convergence on RMS density matrix=1.00D-08 within 128 cycles.
 Requested convergence on MAX density matrix=1.00D-06.
 Requested convergence on             energy=1.00D-06.
 No special actions if energy rises.
 Using DIIS extrapolation, IDIIS=  1040.
 Integral symmetry usage will be decided dynamically.
       596173 words used for storage of precomputed grid.
 IEnd=   1255234 IEndB=   1255234 NGot= 536870912 MDV= 535813369
 LenX= 535813369
 Fock matrices will be formed incrementally for  20 cycles.

 Cycle   1  Pass 1  IDiag  1:
 Petite list used in FoFDir.
 MinBra= 0 MaxBra= 2 Meth= 1.
 IRaf=       0 NMat=   1 IRICut=       1 DoRegI=T DoRafI=F ISym2E= 1 JSym2E=1.
 E= -1367.46072605485    
 DIIS: error= 2.12D-02 at cycle   1 NSaved=   1.
 NSaved= 1 IEnMin= 1 EnMin= -1367.46072605485     IErMin= 1 ErrMin= 2.12D-02
 ErrMax= 2.12D-02 EMaxC= 1.00D-01 BMatC= 8.38D-01 BMatP= 8.38D-01
 IDIUse=3 WtCom= 7.88D-01 WtEn= 2.12D-01
 Coeff-Com:  0.100D+01
 Coeff-En:   0.100D+01
 Coeff:      0.100D+01
 Gap=     0.276 Goal=   None    Shift=    0.000
 GapD=    0.276 DampG=1.000 DampE=0.500 DampFc=0.5000 IDamp=-1.
 Damping current iteration by 5.00D-01
 RMSDP=9.28D-03 MaxDP=9.84D-01              OVMax= 3.46D-01

 Cycle   2  Pass 1  IDiag  1:
 RMSU=  4.55D-03    CP:  9.59D-01
 E= -1367.54081948662     Delta-E=       -0.080093431774 Rises=F Damp=T
 DIIS: error= 8.36D-03 at cycle   2 NSaved=   2.
 NSaved= 2 IEnMin= 2 EnMin= -1367.54081948662     IErMin= 2 ErrMin= 8.36D-03
 ErrMax= 8.36D-03 EMaxC= 1.00D-01 BMatC= 1.32D-01 BMatP= 8.38D-01
 IDIUse=3 WtCom= 9.16D-01 WtEn= 8.36D-02
 Coeff-Com:  0.266D+00 0.734D+00
 Coeff-En:   0.448D+00 0.552D+00
 Coeff:      0.281D+00 0.719D+00
 Gap=     0.219 Goal=   None    Shift=    0.000
 RMSDP=3.94D-03 MaxDP=4.10D-01 DE=-8.01D-02 OVMax= 2.24D-01

 Cycle   3  Pass 1  IDiag  1:
 RMSU=  3.01D-03    CP:  8.91D-01  5.47D-01
 E= -1368.08415383392     Delta-E=       -0.543334347305 Rises=F Damp=F
 DIIS: error= 4.42D-03 at cycle   3 NSaved=   3.
 NSaved= 3 IEnMin= 3 EnMin= -1368.08415383392     IErMin= 3 ErrMin= 4.42D-03
 ErrMax= 4.42D-03 EMaxC= 1.00D-01 BMatC= 3.66D-02 BMatP= 1.32D-01
 IDIUse=3 WtCom= 9.56D-01 WtEn= 4.42D-02
 Coeff-Com:  0.119D+00 0.418D+00 0.463D+00
 Coeff-En:   0.000D+00 0.000D+00 0.100D+01
 Coeff:      0.114D+00 0.400D+00 0.486D+00
 Gap=     0.174 Goal=   None    Shift=    0.000
 RMSDP=1.11D-03 MaxDP=1.04D-01 DE=-5.43D-01 OVMax= 5.84D-02

 Cycle   4  Pass 1  IDiag  1:
 RMSU=  9.25D-04    CP:  8.98D-01  6.15D-01  8.29D-01
 E= -1368.11609589069     Delta-E=       -0.031942056768 Rises=F Damp=F
 DIIS: error= 1.81D-03 at cycle   4 NSaved=   4.
 NSaved= 4 IEnMin= 4 EnMin= -1368.11609589069     IErMin= 4 ErrMin= 1.81D-03
 ErrMax= 1.81D-03 EMaxC= 1.00D-01 BMatC= 5.37D-03 BMatP= 3.66D-02
 IDIUse=3 WtCom= 9.82D-01 WtEn= 1.81D-02
 Coeff-Com:  0.152D-01 0.127D+00 0.280D+00 0.578D+00
 Coeff-En:   0.000D+00 0.000D+00 0.537D-01 0.946D+00
 Coeff:      0.149D-01 0.125D+00 0.276D+00 0.584D+00
 Gap=     0.172 Goal=   None    Shift=    0.000
 RMSDP=3.05D-04 MaxDP=2.18D-02 DE=-3.19D-02 OVMax= 1.28D-02

 Cycle   5  Pass 1  IDiag  1:
 RMSU=  2.68D-04    CP:  9.01D-01  6.21D-01  8.28D-01  8.56D-01
 E= -1368.11989743008     Delta-E=       -0.003801539388 Rises=F Damp=F
 DIIS: error= 7.38D-04 at cycle   5 NSaved=   5.
 NSaved= 5 IEnMin= 5 EnMin= -1368.11989743008     IErMin= 5 ErrMin= 7.38D-04
 ErrMax= 7.38D-04 EMaxC= 1.00D-01 BMatC= 6.69D-04 BMatP= 5.37D-03
 IDIUse=3 WtCom= 9.93D-01 WtEn= 7.38D-03
 Coeff-Com: -0.596D-02 0.260D-01 0.936D-01 0.330D+00 0.556D+00
 Coeff-En:   0.000D+00 0.000D+00 0.000D+00 0.682D-01 0.932D+00
 Coeff:     -0.592D-02 0.258D-01 0.929D-01 0.328D+00 0.559D+00
 Gap=     0.167 Goal=   None    Shift=    0.000
 RMSDP=1.24D-04 MaxDP=1.04D-02 DE=-3.80D-03 OVMax= 5.57D-03

 Cycle   6  Pass 1  IDiag  1:
 RMSU=  1.13D-04    CP:  9.01D-01  6.27D-01  8.36D-01  8.45D-01  9.17D-01
 E= -1368.12043796538     Delta-E=       -0.000540535300 Rises=F Damp=F
 DIIS: error= 1.53D-04 at cycle   6 NSaved=   6.
 NSaved= 6 IEnMin= 6 EnMin= -1368.12043796538     IErMin= 6 ErrMin= 1.53D-04
 ErrMax= 1.53D-04 EMaxC= 1.00D-01 BMatC= 5.15D-05 BMatP= 6.69D-04
 IDIUse=3 WtCom= 9.98D-01 WtEn= 1.53D-03
 Coeff-Com: -0.430D-02 0.437D-02 0.267D-01 0.126D+00 0.298D+00 0.549D+00
 Coeff-En:   0.000D+00 0.000D+00 0.000D+00 0.000D+00 0.000D+00 0.100D+01
 Coeff:     -0.430D-02 0.436D-02 0.267D-01 0.126D+00 0.297D+00 0.550D+00
 Gap=     0.167 Goal=   None    Shift=    0.000
 RMSDP=3.87D-05 MaxDP=2.02D-03 DE=-5.41D-04 OVMax= 1.78D-03

 Cycle   7  Pass 1  IDiag  1:
 RMSU=  3.31D-05    CP:  9.01D-01  6.28D-01  8.38D-01  8.62D-01  9.09D-01
                    CP:  9.21D-01
 E= -1368.12047518132     Delta-E=       -0.000037215941 Rises=F Damp=F
 DIIS: error= 1.08D-04 at cycle   7 NSaved=   7.
 NSaved= 7 IEnMin= 7 EnMin= -1368.12047518132     IErMin= 7 ErrMin= 1.08D-04
 ErrMax= 1.08D-04 EMaxC= 1.00D-01 BMatC= 1.22D-05 BMatP= 5.15D-05
 IDIUse=3 WtCom= 9.99D-01 WtEn= 1.08D-03
 Coeff-Com: -0.203D-02 0.127D-03 0.740D-02 0.460D-01 0.132D+00 0.366D+00
 Coeff-Com:  0.451D+00
 Coeff-En:   0.000D+00 0.000D+00 0.000D+00 0.000D+00 0.000D+00 0.160D+00
 Coeff-En:   0.840D+00
 Coeff:     -0.202D-02 0.127D-03 0.740D-02 0.459D-01 0.132D+00 0.365D+00
 Coeff:      0.451D+00
 Gap=     0.167 Goal=   None    Shift=    0.000
 RMSDP=1.19D-05 MaxDP=8.37D-04 DE=-3.72D-05 OVMax= 7.40D-04

 Cycle   8  Pass 1  IDiag  1:
 RMSU=  8.20D-06    CP:  9.01D-01  6.28D-01  8.38D-01  8.65D-01  9.13D-01
                    CP:  9.09D-01  7.72D-01
 E= -1368.12048474022     Delta-E=       -0.000009558893 Rises=F Damp=F
 DIIS: error= 1.97D-05 at cycle   8 NSaved=   8.
 NSaved= 8 IEnMin= 8 EnMin= -1368.12048474022     IErMin= 8 ErrMin= 1.97D-05
 ErrMax= 1.97D-05 EMaxC= 1.00D-01 BMatC= 6.10D-07 BMatP= 1.22D-05
 IDIUse=1 WtCom= 1.00D+00 WtEn= 0.00D+00
 Coeff-Com: -0.408D-03-0.527D-03 0.404D-03 0.726D-02 0.304D-01 0.122D+00
 Coeff-Com:  0.233D+00 0.608D+00
 Coeff:     -0.408D-03-0.527D-03 0.404D-03 0.726D-02 0.304D-01 0.122D+00
 Coeff:      0.233D+00 0.608D+00
 Gap=     0.167 Goal=   None    Shift=    0.000
 RMSDP=3.76D-06 MaxDP=1.62D-04 DE=-9.56D-06 OVMax= 1.79D-04

 Cycle   9  Pass 1  IDiag  1:
 RMSU=  3.11D-06    CP:  9.01D-01  6.28D-01  8.38D-01  8.64D-01  9.16D-01
                    CP:  9.10D-01  7.58D-01  8.49D-01
 E= -1368.12048525268     Delta-E=       -0.000000512469 Rises=F Damp=F
 DIIS: error= 4.13D-06 at cycle   9 NSaved=   9.
 NSaved= 9 IEnMin= 9 EnMin= -1368.12048525268     IErMin= 9 ErrMin= 4.13D-06
 ErrMax= 4.13D-06 EMaxC= 1.00D-01 BMatC= 3.81D-08 BMatP= 6.10D-07
 IDIUse=1 WtCom= 1.00D+00 WtEn= 0.00D+00
 Coeff-Com: -0.581D-04-0.259D-03-0.199D-03 0.923D-03 0.651D-02 0.341D-01
 Coeff-Com:  0.815D-01 0.279D+00 0.598D+00
 Coeff:     -0.581D-04-0.259D-03-0.199D-03 0.923D-03 0.651D-02 0.341D-01
 Coeff:      0.815D-01 0.279D+00 0.598D+00
 Gap=     0.167 Goal=   None    Shift=    0.000
 RMSDP=1.01D-06 MaxDP=7.22D-05 DE=-5.12D-07 OVMax= 4.57D-05

 Cycle  10  Pass 1  IDiag  1:
 RMSU=  8.30D-07    CP:  9.01D-01  6.28D-01  8.38D-01  8.64D-01  9.16D-01
                    CP:  9.13D-01  7.63D-01  8.53D-01  9.08D-01
 E= -1368.12048528431     Delta-E=       -0.000000031630 Rises=F Damp=F
 DIIS: error= 1.60D-06 at cycle  10 NSaved=  10.
 NSaved=10 IEnMin=10 EnMin= -1368.12048528431     IErMin=10 ErrMin= 1.60D-06
 ErrMax= 1.60D-06 EMaxC= 1.00D-01 BMatC= 6.15D-09 BMatP= 3.81D-08
 IDIUse=1 WtCom= 1.00D+00 WtEn= 0.00D+00
 Coeff-Com:  0.187D-04-0.766D-04-0.169D-03-0.323D-03 0.654D-04 0.436D-02
 Coeff-Com:  0.179D-01 0.812D-01 0.327D+00 0.570D+00
 Coeff:      0.187D-04-0.766D-04-0.169D-03-0.323D-03 0.654D-04 0.436D-02
 Coeff:      0.179D-01 0.812D-01 0.327D+00 0.570D+00
 Gap=     0.167 Goal=   None    Shift=    0.000
 RMSDP=3.76D-07 MaxDP=2.45D-05 DE=-3.16D-08 OVMax= 1.41D-05

 Cycle  11  Pass 1  IDiag  1:
 RMSU=  2.46D-07    CP:  9.01D-01  6.28D-01  8.38D-01  8.64D-01  9.16D-01
                    CP:  9.13D-01  7.66D-01  8.62D-01  9.27D-01  7.44D-01
 E= -1368.12048528964     Delta-E=       -0.000000005328 Rises=F Damp=F
 DIIS: error= 3.21D-07 at cycle  11 NSaved=  11.
 NSaved=11 IEnMin=11 EnMin= -1368.12048528964     IErMin=11 ErrMin= 3.21D-07
 ErrMax= 3.21D-07 EMaxC= 1.00D-01 BMatC= 2.23D-10 BMatP= 6.15D-09
 IDIUse=1 WtCom= 1.00D+00 WtEn= 0.00D+00
 Coeff-Com:  0.943D-05-0.158D-04-0.676D-04-0.201D-03-0.407D-03-0.445D-03
 Coeff-Com:  0.188D-02 0.150D-01 0.921D-01 0.232D+00 0.660D+00
 Coeff:      0.943D-05-0.158D-04-0.676D-04-0.201D-03-0.407D-03-0.445D-03
 Coeff:      0.188D-02 0.150D-01 0.921D-01 0.232D+00 0.660D+00
 Gap=     0.167 Goal=   None    Shift=    0.000
 RMSDP=9.72D-08 MaxDP=7.37D-06 DE=-5.33D-09 OVMax= 2.65D-06

 Cycle  12  Pass 1  IDiag  1:
 RMSU=  7.85D-08    CP:  9.01D-01  6.28D-01  8.38D-01  8.64D-01  9.16D-01
                    CP:  9.13D-01  7.66D-01  8.64D-01  9.32D-01  7.32D-01
                    CP:  9.88D-01
 E= -1368.12048528984     Delta-E=       -0.000000000196 Rises=F Damp=F
 DIIS: error= 1.43D-07 at cycle  12 NSaved=  12.
 NSaved=12 IEnMin=12 EnMin= -1368.12048528984     IErMin=12 ErrMin= 1.43D-07
 ErrMax= 1.43D-07 EMaxC= 1.00D-01 BMatC= 4.28D-11 BMatP= 2.23D-10
 IDIUse=1 WtCom= 1.00D+00 WtEn= 0.00D+00
 Coeff-Com:  0.116D-05 0.111D-05-0.143D-04-0.454D-04-0.157D-03-0.551D-03
 Coeff-Com: -0.876D-03-0.103D-02 0.970D-02 0.544D-01 0.350D+00 0.589D+00
 Coeff:      0.116D-05 0.111D-05-0.143D-04-0.454D-04-0.157D-03-0.551D-03
 Coeff:     -0.876D-03-0.103D-02 0.970D-02 0.544D-01 0.350D+00 0.589D+00
 Gap=     0.167 Goal=   None    Shift=    0.000
 RMSDP=3.15D-08 MaxDP=2.31D-06 DE=-1.96D-10 OVMax= 1.27D-06

 Cycle  13  Pass 1  IDiag  1:
 RMSU=  1.88D-08    CP:  9.01D-01  6.28D-01  8.38D-01  8.64D-01  9.16D-01
                    CP:  9.13D-01  7.66D-01  8.64D-01  9.34D-01  7.47D-01
                    CP:  9.97D-01  7.98D-01
 E= -1368.12048528983     Delta-E=        0.000000000010 Rises=F Damp=F
 DIIS: error= 2.31D-08 at cycle  13 NSaved=  13.
 NSaved=13 IEnMin=12 EnMin= -1368.12048528984     IErMin=13 ErrMin= 2.31D-08
 ErrMax= 2.31D-08 EMaxC= 1.00D-01 BMatC= 1.20D-12 BMatP= 4.28D-11
 IDIUse=1 WtCom= 1.00D+00 WtEn= 0.00D+00
 Coeff-Com: -0.282D-06 0.154D-05-0.200D-05-0.789D-05-0.437D-04-0.194D-03
 Coeff-Com: -0.476D-03-0.135D-02-0.236D-02 0.527D-02 0.859D-01 0.199D+00
 Coeff-Com:  0.714D+00
 Coeff:     -0.282D-06 0.154D-05-0.200D-05-0.789D-05-0.437D-04-0.194D-03
 Coeff:     -0.476D-03-0.135D-02-0.236D-02 0.527D-02 0.859D-01 0.199D+00
 Coeff:      0.714D+00
 Gap=     0.167 Goal=   None    Shift=    0.000
 RMSDP=7.39D-09 MaxDP=5.10D-07 DE= 1.00D-11 OVMax= 2.84D-07

 SCF Done:  E(RB+HF-LYP) =  -1368.12048529     A.U. after   13 cycles
             Convg  =    0.7390D-08             -V/T =  2.0044
             S**2   =   0.0000
 KE= 1.362173456256D+03 PE=-5.406068271047D+03 EE= 1.598735710839D+03
 Leave Link  502 at Sun Aug  3 13:17:16 2008, MaxMem=  536870912 cpu:    3251.7
 (Enter /usr/local/Chem-Apps/g03_d01/g03/l601.exe)
 Copying SCF densities to generalized density rwf, ISCF=0 IROHF=0.

 **********************************************************************

            Population analysis using the SCF density.

 **********************************************************************

 Orbital symmetries:
       Occupied  (A) (A) (A) (A) (A) (A) (A) (A) (A) (A) (A) (A)
                 (A) (A) (A) (A) (A) (A) (A) (A) (A) (A) (A) (A)
                 (A) (A) (A) (A) (A) (A) (A) (A) (A) (A) (A) (A)
                 (A) (A) (A) (A) (A) (A) (A) (A) (A) (A) (A) (A)
                 (A) (A) (A) (A) (A) (A) (A) (A) (A) (A) (A)
       Virtual   (A) (A) (A) (A) (A) (A) (A) (A) (A) (A) (A) (A)
                 (A) (A) (A) (A) (A) (A) (A) (A) (A) (A) (A) (A)
                 (A) (A) (A) (A) (A) (A) (A) (A) (A) (A) (A) (A)
                 (A) (A) (A) (A) (A) (A) (A) (A) (A) (A) (A) (A)
                 (A) (A) (A) (A) (A) (A) (A) (A) (A) (A) (A) (A)
                 (A) (A) (A) (A) (A) (A) (A) (A) (A) (A) (A) (A)
                 (A) (A) (A) (A) (A) (A) (A) (A) (A) (A) (A) (A)
                 (A) (A) (A) (A) (A) (A) (A) (A) (A) (A) (A) (A)
                 (A) (A) (A) (A) (A) (A) (A) (A) (A) (A) (A) (A)
                 (A) (A) (A) (A) (A) (A) (A) (A) (A) (A) (A) (A)
                 (A) (A) (A) (A) (A) (A) (A) (A) (A) (A) (A) (A)
                 (A) (A) (A) (A) (A) (A) (A) (A) (A) (A) (A) (A)
                 (A) (A) (A) (A) (A) (A) (A) (A) (A) (A) (A) (A)
                 (A) (A) (A) (A) (A) (A) (A) (A) (A) (A) (A) (A)
                 (A) (A) (A) (A) (A) (A) (A) (A) (A) (A) (A) (A)
                 (A) (A) (A) (A) (A) (A) (A) (A) (A) (A) (A) (A)
                 (A) (A) (A) (A) (A) (A) (A) (A) (A) (A) (A) (A)
                 (A) (A) (A) (A) (A) (A) (A) (A) (A) (A) (A) (A)
                 (A) (A) (A) (A) (A) (A) (A) (A) (A) (A) (A) (A)
                 (A) (A) (A) (A) (A) (A) (A) (A) (A) (A) (A) (A)
                 (A) (A) (A) (A) (A) (A) (A) (A) (A) (A) (A) (A)
                 (A) (A) (A) (A) (A) (A) (A) (A) (A) (A) (A) (A)
                 (A) (A) (A) (A) (A) (A) (A) (A) (A) (A) (A) (A)
                 (A) (A) (A) (A) (A) (A) (A) (A) (A) (A) (A) (A)
                 (A) (A) (A) (A) (A) (A) (A) (A) (A) (A) (A) (A)
                 (A) (A) (A) (A) (A) (A) (A) (A) (A) (A) (A) (A)
                 (A) (A) (A) (A) (A) (A) (A) (A) (A) (A) (A) (A)
                 (A) (A) (A) (A) (A) (A) (A) (A) (A) (A) (A) (A)
                 (A) (A) (A) (A) (A) (A)
 The electronic state is 1-A.
 Alpha  occ. eigenvalues --  -88.75215 -77.08486 -19.06107 -19.02044 -19.00899
 Alpha  occ. eigenvalues --  -18.99410 -18.98344 -18.98136 -14.21224 -10.14300
 Alpha  occ. eigenvalues --  -10.11242 -10.10607  -7.81288  -6.53306  -5.77668
 Alpha  occ. eigenvalues --   -5.77343  -5.76762  -4.69651  -4.69553  -4.69490
 Alpha  occ. eigenvalues --   -0.94277  -0.88328  -0.87345  -0.86647  -0.85406
 Alpha  occ. eigenvalues --   -0.81090  -0.78201  -0.68170  -0.61405  -0.53792
 Alpha  occ. eigenvalues --   -0.49335  -0.44834  -0.42471  -0.39707  -0.38917
 Alpha  occ. eigenvalues --   -0.36728  -0.36535  -0.36229  -0.33036  -0.31824
 Alpha  occ. eigenvalues --   -0.30392  -0.28748  -0.27784  -0.26843  -0.25724
 Alpha  occ. eigenvalues --   -0.25193  -0.24789  -0.23480  -0.23051  -0.20639
 Alpha  occ. eigenvalues --   -0.19217  -0.17959  -0.17475  -0.16917  -0.16428
 Alpha  occ. eigenvalues --   -0.16029  -0.15441  -0.13577  -0.11049
 Alpha virt. eigenvalues --    0.05677   0.08434   0.08815   0.09408   0.10557
 Alpha virt. eigenvalues --    0.11045   0.11976   0.12480   0.12837   0.13421
 Alpha virt. eigenvalues --    0.14089   0.14453   0.14979   0.15343   0.16037
 Alpha virt. eigenvalues --    0.17059   0.17136   0.17518   0.17813   0.18169
 Alpha virt. eigenvalues --    0.18373   0.18836   0.19195   0.19284   0.19968
 Alpha virt. eigenvalues --    0.20529   0.21420   0.21768   0.22163   0.22807
 Alpha virt. eigenvalues --    0.23074   0.23826   0.24312   0.24546   0.25059
 Alpha virt. eigenvalues --    0.25343   0.25566   0.26395   0.26816   0.27382
 Alpha virt. eigenvalues --    0.28195   0.28527   0.28936   0.29077   0.29235
 Alpha virt. eigenvalues --    0.29800   0.30255   0.30952   0.31048   0.31469
 Alpha virt. eigenvalues --    0.31986   0.32479   0.32567   0.33093   0.33491
 Alpha virt. eigenvalues --    0.33669   0.34259   0.34318   0.34491   0.35190
 Alpha virt. eigenvalues --    0.35776   0.36206   0.36550   0.36741   0.37180
 Alpha virt. eigenvalues --    0.37778   0.38077   0.39036   0.39566   0.39738
 Alpha virt. eigenvalues --    0.40366   0.41241   0.41512   0.41777   0.42083
 Alpha virt. eigenvalues --    0.42661   0.43837   0.44713   0.45260   0.45440
 Alpha virt. eigenvalues --    0.46178   0.46368   0.46890   0.47114   0.47798
 Alpha virt. eigenvalues --    0.48461   0.49032   0.50039   0.50211   0.50594
 Alpha virt. eigenvalues --    0.51661   0.51996   0.52514   0.52711   0.53365
 Alpha virt. eigenvalues --    0.54155   0.55001   0.55288   0.56034   0.56933
 Alpha virt. eigenvalues --    0.57807   0.58122   0.59281   0.59862   0.60648
 Alpha virt. eigenvalues --    0.61418   0.61677   0.62243   0.63040   0.63660
 Alpha virt. eigenvalues --    0.63943   0.64428   0.65117   0.65871   0.66278
 Alpha virt. eigenvalues --    0.66447   0.67102   0.67627   0.68595   0.69018
 Alpha virt. eigenvalues --    0.69976   0.71019   0.71331   0.72183   0.72515
 Alpha virt. eigenvalues --    0.73305   0.73767   0.75556   0.76083   0.76678
 Alpha virt. eigenvalues --    0.76876   0.78188   0.78919   0.79881   0.80124
 Alpha virt. eigenvalues --    0.80954   0.81551   0.82055   0.83524   0.84229
 Alpha virt. eigenvalues --    0.84641   0.85577   0.86718   0.87456   0.87717
 Alpha virt. eigenvalues --    0.88236   0.89385   0.90205   0.91368   0.92133
 Alpha virt. eigenvalues --    0.92693   0.94285   0.94993   0.95422   0.97357
 Alpha virt. eigenvalues --    0.98508   1.00003   1.00369   1.01009   1.01550
 Alpha virt. eigenvalues --    1.02177   1.02805   1.04014   1.04738   1.06793
 Alpha virt. eigenvalues --    1.07756   1.08335   1.08510   1.09789   1.10690
 Alpha virt. eigenvalues --    1.11160   1.11528   1.11813   1.12865   1.13858
 Alpha virt. eigenvalues --    1.14697   1.15609   1.16067   1.16679   1.18110
 Alpha virt. eigenvalues --    1.19022   1.19366   1.20663   1.21207   1.22187
 Alpha virt. eigenvalues --    1.22669   1.22844   1.24206   1.25915   1.26784
 Alpha virt. eigenvalues --    1.27309   1.28317   1.29161   1.30023   1.31277
 Alpha virt. eigenvalues --    1.31786   1.32877   1.34178   1.34698   1.35154
 Alpha virt. eigenvalues --    1.37032   1.40070   1.40907   1.41388   1.42517
 Alpha virt. eigenvalues --    1.43268   1.44084   1.45238   1.45697   1.47433
 Alpha virt. eigenvalues --    1.48590   1.48915   1.50118   1.52098   1.53869
 Alpha virt. eigenvalues --    1.55127   1.56101   1.56773   1.58067   1.58906
 Alpha virt. eigenvalues --    1.60620   1.62942   1.65914   1.66839   1.67432
 Alpha virt. eigenvalues --    1.69811   1.70568   1.73103   1.74554   1.76289
 Alpha virt. eigenvalues --    1.77883   1.79105   1.79692   1.81474   1.82794
 Alpha virt. eigenvalues --    1.84957   1.85886   1.87145   1.87746   1.89683
 Alpha virt. eigenvalues --    1.89975   1.91010   1.91025   1.92100   1.92963
 Alpha virt. eigenvalues --    1.94546   1.95347   1.96705   1.97323   1.98800
 Alpha virt. eigenvalues --    2.00293   2.02681   2.03863   2.04994   2.06571
 Alpha virt. eigenvalues --    2.07679   2.08962   2.11318   2.11459   2.13487
 Alpha virt. eigenvalues --    2.16206   2.17830   2.19848   2.21304   2.24419
 Alpha virt. eigenvalues --    2.25080   2.26776   2.28854   2.30461   2.32614
 Alpha virt. eigenvalues --    2.33436   2.35543   2.36934   2.37950   2.38897
 Alpha virt. eigenvalues --    2.39791   2.42277   2.44213   2.45163   2.46331
 Alpha virt. eigenvalues --    2.49275   2.49981   2.51186   2.54355   2.57468
 Alpha virt. eigenvalues --    2.61358   2.61863   2.63955   2.65151   2.66808
 Alpha virt. eigenvalues --    2.67285   2.69026   2.69200   2.74787   2.75696
 Alpha virt. eigenvalues --    2.76654   2.78263   2.79571   2.83273   2.87397
 Alpha virt. eigenvalues --    2.88365   2.92921   2.94564   2.96403   2.97569
 Alpha virt. eigenvalues --    2.99502   3.05515   3.08689   3.14653   3.32837
 Alpha virt. eigenvalues --    3.38838   3.46807   3.48062   3.48870   3.50349
 Alpha virt. eigenvalues --    3.50879   3.51588   3.52151   3.52507   3.53750
 Alpha virt. eigenvalues --    3.54102   3.55662   3.56197   3.57681   3.58766
 Alpha virt. eigenvalues --    3.60032   3.60794   3.63564   3.64886   3.68407
 Alpha virt. eigenvalues --    3.71106   3.72473   3.75254   3.82230   3.85418
 Alpha virt. eigenvalues --    3.89973   3.93294   3.95203   4.11508   4.13570
 Alpha virt. eigenvalues --    4.14471   4.18893
          Condensed to atoms (all electrons):
              1          2          3          4          5          6
     1  P   14.648678  -0.268922  -0.313352  -0.082669  -0.140610  -0.270976
     2  O   -0.268922   9.154257  -0.041532  -0.007669  -0.029449   0.090911
     3  O   -0.313352  -0.041532   9.203840   0.089608   0.000679   0.050961
     4  N   -0.082669  -0.007669   0.089608   7.114899   0.296243   0.034249
     5  H   -0.140610  -0.029449   0.000679   0.296243   1.236669  -0.016068
     6  S   -0.270976   0.090911   0.050961   0.034249  -0.016068  16.407097
     7  C   -0.216836   0.041526  -0.070911   0.059090  -0.210226   0.010708
     8  H   -0.015823  -0.001369  -0.000040  -0.048999  -0.089206  -0.005383
     9  H    0.061457   0.011806  -0.009811  -0.209167   0.059388  -0.006130
    10  C    0.167017  -0.016458   0.015467  -0.031804   0.028815   0.150213
    11  H    0.017371   0.002353  -0.006882   0.017853  -0.000216  -0.166120
    12  O    0.038141  -0.053100  -0.042985  -0.003816   0.000763  -0.006182
    13  H    0.020619  -0.017491   0.037182  -0.004902  -0.000276  -0.006590
    14  H    0.008932   0.066509  -0.014341  -0.000997   0.000988  -0.005675
    15  O   -0.030445  -0.035955  -0.002321   0.002772   0.018122   0.000625
    16  H    0.045555   0.111907  -0.000221  -0.023871   0.026338  -0.016791
    17  H    0.015502  -0.020656   0.000369   0.016746  -0.008616  -0.000751
    18  O   -0.003874  -0.001359  -0.033001  -0.000942   0.000786  -0.002696
    19  H   -0.015965   0.002161   0.080502   0.005846  -0.000319  -0.002898
    20  H   -0.000419   0.001073  -0.014334  -0.001242  -0.000435   0.007536
    21  C   -0.630214   0.053763   0.146659   0.142568   0.010694   0.087394
    22  H    0.114438  -0.005516  -0.003842  -0.065708  -0.020227  -0.042337
    23  H   -0.012734  -0.003297   0.010954  -0.063140   0.004016  -0.111475
    24  O    0.029676  -0.000040  -0.006313   0.003342  -0.004577   0.016137
    25  H   -0.003774   0.000459   0.000574   0.004357   0.000527   0.000933
              7          8          9         10         11         12
     1  P   -0.216836  -0.015823   0.061457   0.167017   0.017371   0.038141
     2  O    0.041526  -0.001369   0.011806  -0.016458   0.002353  -0.053100
     3  O   -0.070911  -0.000040  -0.009811   0.015467  -0.006882  -0.042985
     4  N    0.059090  -0.048999  -0.209167  -0.031804   0.017853  -0.003816
     5  H   -0.210226  -0.089206   0.059388   0.028815  -0.000216   0.000763
     6  S    0.010708  -0.005383  -0.006130   0.150213  -0.166120  -0.006182
     7  C    6.389115  -0.024338   0.002647  -0.151519   0.095831  -0.000826
     8  H   -0.024338   2.424804  -0.824975   0.138449   0.013933  -0.000108
     9  H    0.002647  -0.824975   2.468143  -0.120818   0.001018   0.000241
    10  C   -0.151519   0.138449  -0.120818   6.172526  -0.101356   0.002198
    11  H    0.095831   0.013933   0.001018  -0.101356   2.054594  -0.000022
    12  O   -0.000826  -0.000108   0.000241   0.002198  -0.000022   7.836590
    13  H    0.003279   0.000494  -0.000062   0.002834  -0.000309   0.285374
    14  H   -0.003538   0.000183  -0.000597   0.001322   0.000039   0.264645
    15  O    0.006638   0.002966   0.000876  -0.004827   0.000299  -0.000734
    16  H   -0.016163  -0.000078   0.003351  -0.001129   0.000916   0.000453
    17  H   -0.004195  -0.001514  -0.001257   0.002325  -0.001022  -0.000065
    18  O   -0.009974  -0.001554   0.006189  -0.039291   0.000835   0.000084
    19  H   -0.001905   0.000987  -0.006122  -0.003211   0.006733   0.000416
    20  H    0.005943   0.000038   0.000255   0.002731  -0.001340   0.000022
    21  C   -1.166711   0.120882  -0.170378  -1.070233   0.290314  -0.003915
    22  H    0.236202  -0.151802   0.140030   0.105648  -0.152194  -0.000357
    23  H   -0.028514   0.013217  -0.005718   0.074037  -0.646551   0.000584
    24  O    0.157479  -0.049261   0.025294   0.135916  -0.042891   0.000022
    25  H   -0.111501  -0.008226  -0.000418  -0.131219  -0.001507  -0.000003
             13         14         15         16         17         18
     1  P    0.020619   0.008932  -0.030445   0.045555   0.015502  -0.003874
     2  O   -0.017491   0.066509  -0.035955   0.111907  -0.020656  -0.001359
     3  O    0.037182  -0.014341  -0.002321  -0.000221   0.000369  -0.033001
     4  N   -0.004902  -0.000997   0.002772  -0.023871   0.016746  -0.000942
     5  H   -0.000276   0.000988   0.018122   0.026338  -0.008616   0.000786
     6  S   -0.006590  -0.005675   0.000625  -0.016791  -0.000751  -0.002696
     7  C    0.003279  -0.003538   0.006638  -0.016163  -0.004195  -0.009974
     8  H    0.000494   0.000183   0.002966  -0.000078  -0.001514  -0.001554
     9  H   -0.000062  -0.000597   0.000876   0.003351  -0.001257   0.006189
    10  C    0.002834   0.001322  -0.004827  -0.001129   0.002325  -0.039291
    11  H   -0.000309   0.000039   0.000299   0.000916  -0.001022   0.000835
    12  O    0.285374   0.264645  -0.000734   0.000453  -0.000065   0.000084
    13  H    0.664513  -0.105720  -0.000356  -0.000316   0.000213   0.000841
    14  H   -0.105720   0.637419   0.000986  -0.000842  -0.000098  -0.000206
    15  O   -0.000356   0.000986   7.843961   0.153368   0.339950  -0.000030
    16  H   -0.000316  -0.000842   0.153368   0.613955  -0.080242  -0.000202
    17  H    0.000213  -0.000098   0.339950  -0.080242   0.661121   0.000015
    18  O    0.000841  -0.000206  -0.000030  -0.000202   0.000015   7.849615
    19  H   -0.005224   0.000676   0.000055  -0.000427   0.000025   0.159868
    20  H   -0.000232   0.000434  -0.000006   0.000050   0.000013   0.341127
    21  C   -0.006272  -0.004062   0.005556   0.004994  -0.001912   0.018541
    22  H   -0.000018  -0.000153   0.003309   0.000871  -0.001350   0.000415
    23  H    0.000731   0.000258  -0.000425  -0.000105   0.000505   0.019839
    24  O    0.000155   0.000107  -0.000349  -0.000716   0.000320   0.000736
    25  H   -0.000022  -0.000024  -0.000249   0.000082  -0.000018   0.000227
             19         20         21         22         23         24
     1  P   -0.015965  -0.000419  -0.630214   0.114438  -0.012734   0.029676
     2  O    0.002161   0.001073   0.053763  -0.005516  -0.003297  -0.000040
     3  O    0.080502  -0.014334   0.146659  -0.003842   0.010954  -0.006313
     4  N    0.005846  -0.001242   0.142568  -0.065708  -0.063140   0.003342
     5  H   -0.000319  -0.000435   0.010694  -0.020227   0.004016  -0.004577
     6  S   -0.002898   0.007536   0.087394  -0.042337  -0.111475   0.016137
     7  C   -0.001905   0.005943  -1.166711   0.236202  -0.028514   0.157479
     8  H    0.000987   0.000038   0.120882  -0.151802   0.013217  -0.049261
     9  H   -0.006122   0.000255  -0.170378   0.140030  -0.005718   0.025294
    10  C   -0.003211   0.002731  -1.070233   0.105648   0.074037   0.135916
    11  H    0.006733  -0.001340   0.290314  -0.152194  -0.646551  -0.042891
    12  O    0.000416   0.000022  -0.003915  -0.000357   0.000584   0.000022
    13  H   -0.005224  -0.000232  -0.006272  -0.000018   0.000731   0.000155
    14  H    0.000676   0.000434  -0.004062  -0.000153   0.000258   0.000107
    15  O    0.000055  -0.000006   0.005556   0.003309  -0.000425  -0.000349
    16  H   -0.000427   0.000050   0.004994   0.000871  -0.000105  -0.000716
    17  H    0.000025   0.000013  -0.001912  -0.001350   0.000505   0.000320
    18  O    0.159868   0.341127   0.018541   0.000415   0.019839   0.000736
    19  H    0.609532  -0.080592   0.023978  -0.003142  -0.002723  -0.001917
    20  H   -0.080592   0.662369  -0.014710   0.000639   0.007132   0.000422
    21  C    0.023978  -0.014710   8.959558  -1.485239  -0.178763  -0.652082
    22  H   -0.003142   0.000639  -1.485239   2.949990   0.142005   0.059533
    23  H   -0.002723   0.007132  -0.178763   0.142005   2.188688   0.017074
    24  O   -0.001917   0.000422  -0.652082   0.059533   0.017074   8.589120
    25  H    0.000425  -0.000171   0.406436  -0.163997  -0.003640   0.245752
             25
     1  P   -0.003774
     2  O    0.000459
     3  O    0.000574
     4  N    0.004357
     5  H    0.000527
     6  S    0.000933
     7  C   -0.111501
     8  H   -0.008226
     9  H   -0.000418
    10  C   -0.131219
    11  H   -0.001507
    12  O   -0.000003
    13  H   -0.000022
    14  H   -0.000024
    15  O   -0.000249
    16  H    0.000082
    17  H   -0.000018
    18  O    0.000227
    19  H    0.000425
    20  H   -0.000171
    21  C    0.406436
    22  H   -0.163997
    23  H   -0.003640
    24  O    0.245752
    25  H    0.721091
 Mulliken atomic charges:
              1
     1  P    1.839230
     2  O   -1.033913
     3  O   -1.076909
     4  N   -0.242647
     5  H   -0.163805
     6  S   -0.196694
     7  C    1.008698
     8  H   -0.493279
     9  H   -0.425241
    10  C    0.672367
    11  H   -0.381678
    12  O   -0.317418
    13  H    0.131556
    14  H    0.153755
    15  O   -0.303787
    16  H    0.179262
    17  H    0.084591
    18  O   -0.305989
    19  H    0.233240
    20  H    0.083696
    21  C    1.113154
    22  H   -0.657198
    23  H   -0.421957
    24  O   -0.522940
    25  H    0.043905
 Sum of Mulliken charges=  -1.00000
 Atomic charges with hydrogens summed into heavy atoms:
              1
     1  P    1.839230
     2  O   -1.033913
     3  O   -1.076909
     4  N   -0.406452
     5  H    0.000000
     6  S   -0.196694
     7  C    0.090178
     8  H    0.000000
     9  H    0.000000
    10  C   -0.131268
    11  H    0.000000
    12  O   -0.032106
    13  H    0.000000
    14  H    0.000000
    15  O   -0.039934
    16  H    0.000000
    17  H    0.000000
    18  O    0.010947
    19  H    0.000000
    20  H    0.000000
    21  C    0.455956
    22  H    0.000000
    23  H    0.000000
    24  O   -0.479034
    25  H    0.000000
 Sum of Mulliken charges=  -1.00000
 Electronic spatial extent (au):  <R**2>=  3297.2418
 Charge=    -1.0000 electrons
 Dipole moment (field-independent basis, Debye):
    X=     8.3938    Y=    -2.9843    Z=     1.8728  Tot=     9.1032
 Quadrupole moment (field-independent basis, Debye-Ang):
   XX=  -125.6668   YY=  -122.6628   ZZ=   -96.8598
   XY=    -8.7267   XZ=    -1.9831   YZ=     3.5176
 Traceless Quadrupole moment (field-independent basis, Debye-Ang):
   XX=   -10.6037   YY=    -7.5996   ZZ=    18.2033
   XY=    -8.7267   XZ=    -1.9831   YZ=     3.5176
 Octapole moment (field-independent basis, Debye-Ang**2):
  XXX=   127.6181  YYY=     0.7500  ZZZ=    -4.9353  XYY=    22.1998
  XXY=   -52.1117  XXZ=    24.1450  XZZ=    -0.2535  YZZ=     1.5811
  YYZ=    21.6108  XYZ=     0.1328
 Hexadecapole moment (field-independent basis, Debye-Ang**3):
 XXXX= -2707.0100 YYYY= -1957.5413 ZZZZ=  -636.5978 XXXY=    32.4152
 XXXZ=   -31.3557 YYYX=  -154.0477 YYYZ=    27.6184 ZZZX=    -9.7833
 ZZZY=    -6.2419 XXYY=  -654.2187 XXZZ=  -484.8777 YYZZ=  -296.8407
 XXYZ=    28.0662 YYXZ=    -7.9603 ZZXY=     4.6869
 N-N= 1.077038618662D+03 E-N=-5.406068274752D+03  KE= 1.362173456256D+03
 No NMR shielding tensors so no spin-rotation constants.
 Leave Link  601 at Sun Aug  3 13:17:17 2008, MaxMem=  536870912 cpu:      15.1
 (Enter /usr/local/Chem-Apps/g03_d01/g03/l701.exe)
 Compute integral first derivatives.
 ... and contract with generalized density number  0.
 Leave Link  701 at Sun Aug  3 13:17:19 2008, MaxMem=  536870912 cpu:       7.1
 (Enter /usr/local/Chem-Apps/g03_d01/g03/l702.exe)
 L702 exits ... SP integral derivatives will be done elsewhere.
 Leave Link  702 at Sun Aug  3 13:17:19 2008, MaxMem=  536870912 cpu:       0.0
 (Enter /usr/local/Chem-Apps/g03_d01/g03/l703.exe)
 Compute integral first derivatives, UseDBF=F.
 Integral derivatives from FoFDir, PRISM(SPDF).
 Symmetry not used in FoFDir.
 MinBra= 0 MaxBra= 2 Meth= 1.
 IRaf=       0 NMat=   1 IRICut=       1 DoRegI=T DoRafI=F ISym2E= 0 JSym2E=0.
 Leave Link  703 at Sun Aug  3 13:18:02 2008, MaxMem=  536870912 cpu:     675.8
 (Enter /usr/local/Chem-Apps/g03_d01/g03/l716.exe)
 Dipole        = 3.30237008D+00-1.17411544D+00 7.36799470D-01
 ***** Axes restored to original set *****
 -------------------------------------------------------------------
 Center     Atomic                   Forces (Hartrees/Bohr)
 Number     Number              X              Y              Z
 -------------------------------------------------------------------
    1         15           0.004369413   -0.002563160   -0.000489446
    2          8          -0.001869052   -0.000542056    0.000129436
    3          8          -0.000834470    0.001482246   -0.000288568
    4          7          -0.004656761    0.000981188   -0.003154692
    5          1           0.000208303    0.000969122    0.000386686
    6         16          -0.000766935    0.002273395    0.000624979
    7          6          -0.008161635   -0.002220554    0.007416126
    8          1           0.002333805   -0.000408046    0.000740590
    9          1           0.001069961    0.000752888    0.000351955
   10          6          -0.010242465   -0.002548352    0.001161323
   11          1           0.002458839   -0.001010393   -0.000691265
   12          8          -0.000481646    0.000220676   -0.000156553
   13          1           0.000303848   -0.000153586    0.000105165
   14          1           0.000407768   -0.000189893    0.000118480
   15          8          -0.000170592   -0.001053168    0.000238067
   16          1           0.000082441    0.000832346   -0.000165039
   17          1           0.000027782    0.000340679   -0.000109743
   18          8          -0.000017761    0.000942983    0.000014394
   19          1          -0.000104526   -0.000744787   -0.000091459
   20          1           0.000032273   -0.000256935   -0.000048597
   21          6           0.012316767   -0.007985412   -0.001613728
   22          1          -0.017072212   -0.004523582    0.002787489
   23          1           0.000702427    0.000045559   -0.000576411
   24          8           0.020346919    0.015327780   -0.006910477
   25          1          -0.000282492    0.000031063    0.000221288
 -------------------------------------------------------------------
 Cartesian Forces:  Max     0.020346919 RMS     0.004570989
 Leave Link  716 at Sun Aug  3 13:18:03 2008, MaxMem=  536870912 cpu:       0.0
 (Enter /usr/local/Chem-Apps/g03_d01/g03/l103.exe)

 GradGradGradGradGradGradGradGradGradGradGradGradGradGradGradGradGradGrad
 Berny optimization.
 Internal  Forces:  Max     0.023819927 RMS     0.002779798
 Search for a local minimum.
 Step number   1 out of a maximum of 141
 All quantities printed in internal units (Hartrees-Bohrs-Radians)
 Swaping is turned off.
 Second derivative matrix not updated -- first step.
     Eigenvalues ---    0.00230   0.00230   0.00607   0.00640   0.00832
     Eigenvalues ---    0.00884   0.01182   0.01295   0.01627   0.02069
     Eigenvalues ---    0.02752   0.03273   0.03349   0.03839   0.04102
     Eigenvalues ---    0.04128   0.04639   0.04965   0.05411   0.05662
     Eigenvalues ---    0.06146   0.06278   0.06605   0.06994   0.07624
     Eigenvalues ---    0.08038   0.09371   0.09602   0.10465   0.11427
     Eigenvalues ---    0.12171   0.12496   0.12660   0.13160   0.14476
     Eigenvalues ---    0.16000   0.16000   0.16000   0.16162   0.16553
     Eigenvalues ---    0.18341   0.18517   0.19871   0.20122   0.21569
     Eigenvalues ---    0.21742   0.23789   0.25000   0.25000   0.28027
     Eigenvalues ---    0.29231   0.33017   0.33956   0.33958   0.34017
     Eigenvalues ---    0.34171   0.34223   0.35770   0.40989   0.44335
     Eigenvalues ---    0.49794   0.50091   0.50643   0.51452   0.54554
     Eigenvalues ---    0.54704   0.55473   0.63707   0.650841000.00000
     Eigenvalues --- 1000.000001000.000001000.000001000.000001000.00000
     Eigenvalues --- 1000.000001000.000001000.000001000.000001000.00000
     Eigenvalues --- 1000.000001000.000001000.000001000.000001000.00000
     Eigenvalues --- 1000.000001000.000001000.000001000.000001000.00000
     Eigenvalues --- 1000.000001000.000001000.000001000.000001000.00000
     Eigenvalues --- 1000.000001000.000001000.000001000.000001000.00000
     Eigenvalues --- 1000.000001000.000001000.000001000.000001000.00000
     Eigenvalues --- 1000.000001000.000001000.000001000.000001000.00000
     Eigenvalues --- 1000.000001000.000001000.000001000.000001000.00000
     Eigenvalues --- 1000.000001000.000001000.000001000.000001000.00000
     Eigenvalues --- 1000.000001000.000001000.000001000.000001000.00000
     Eigenvalues --- 1000.000001000.000001000.000001000.000001000.00000
     Eigenvalues --- 1000.00000
 Quadratic step=4.147D-01 exceeds max=3.000D-01 adjusted using Lamda=-1.613D-02.
 Angle between NR and scaled steps=  12.60 degrees.
 Angle between quadratic step and forces=  41.71 degrees.
 Linear search not attempted -- option 19 set.
 Iteration  1 RMS(Cart)=  0.03037620 RMS(Int)=  0.00092836
 Iteration  2 RMS(Cart)=  0.00085573 RMS(Int)=  0.00047254
 Iteration  3 RMS(Cart)=  0.00000105 RMS(Int)=  0.00047254
 Iteration  4 RMS(Cart)=  0.00000000 RMS(Int)=  0.00047254
 Variable       Old X    -DE/DX   Delta X   Delta X   Delta X     New X
                                 (Linear)    (Quad)   (Total)
    R1        2.90344   0.00184   0.00000   0.00283   0.00284   2.90628
    R2        2.89726   0.00153   0.00000   0.00234   0.00234   2.89960
    R3        3.24752  -0.00156   0.00000  -0.00722  -0.00739   3.24014
    R4        4.17140   0.00078   0.00000  -0.00175  -0.00200   4.16940
    R5        3.93748  -0.00020   0.00000  -0.00404  -0.00404   3.93344
    R6        3.37478  -0.00013   0.00000  -0.00169  -0.00169   3.37309
    R7        4.29986  -0.00010   0.00000  -0.00298  -0.00299   4.29688
    R8        3.32400  -0.00013   0.00000  -0.00162  -0.00162   3.32238
    R9        1.92756  -0.00088   0.00000  -0.00191  -0.00191   1.92565
   R10        2.76550   0.00200   0.00000   0.00592   0.00596   2.77146
   R11        3.52286   0.00026   0.00000   0.00155   0.00159   3.52445
   R12        2.07401   0.00091   0.00000   0.00255   0.00255   2.07655
   R13        2.07405   0.00057   0.00000   0.00160   0.00160   2.07565
   R14        2.90791  -0.00174   0.00000  -0.00207  -0.00182   2.90610
   R15        2.06955   0.00085   0.00000   0.00236   0.00236   2.07192
   R16        2.87617   0.00131   0.00000   0.00814   0.00836   2.88453
   R17        2.07301   0.00020   0.00000   0.00057   0.00057   2.07358
   R18        1.83313   0.00007   0.00000   0.00001   0.00000   1.83313
   R19        1.83953   0.00014   0.00000   0.00016   0.00015   1.83968
   R20        1.86774   0.00058   0.00000   0.00113   0.00113   1.86887
   R21        1.82230  -0.00009   0.00000  -0.00017  -0.00017   1.82214
   R22        1.86473   0.00054   0.00000   0.00104   0.00104   1.86578
   R23        1.82096  -0.00010   0.00000  -0.00017  -0.00017   1.82079
   R24        2.07042   0.00421   0.00000   0.01178   0.01178   2.08219
   R25        2.70231   0.02382   0.00000   0.05591   0.05591   2.75822
   R26        1.81414  -0.00013   0.00000  -0.00023  -0.00023   1.81391
    A1        2.12872  -0.00068   0.00000  -0.00436  -0.00439   2.12434
    A2        1.89155   0.00031   0.00000   0.00227   0.00233   1.89388
    A3        1.84589   0.00030   0.00000   0.00043   0.00050   1.84639
    A4        1.90105   0.00000   0.00000   0.00144   0.00146   1.90251
    A5        1.89373  -0.00032   0.00000   0.00110   0.00112   1.89484
    A6        1.76885   0.00065   0.00000  -0.00026  -0.00043   1.76841
    A7        1.82030   0.00005   0.00000   0.00207   0.00208   1.82238
    A8        1.91763   0.00031   0.00000   0.00195   0.00194   1.91956
    A9        2.48716  -0.00030   0.00000  -0.00245  -0.00247   2.48469
   A10        1.77812   0.00010   0.00000   0.00175   0.00177   1.77988
   A11        2.27104   0.00044   0.00000   0.00291   0.00291   2.27395
   A12        1.96552  -0.00037   0.00000  -0.00301  -0.00302   1.96250
   A13        1.91955   0.00076   0.00000  -0.00280  -0.00279   1.91676
   A14        2.06101  -0.00141   0.00000  -0.00231  -0.00232   2.05869
   A15        1.98514  -0.00020   0.00000  -0.00414  -0.00420   1.98094
   A16        1.68927  -0.00070   0.00000   0.00134   0.00115   1.69042
   A17        1.89333   0.00074   0.00000   0.00402   0.00412   1.89745
   A18        1.89051  -0.00114   0.00000  -0.00027  -0.00034   1.89017
   A19        1.96830   0.00418   0.00000   0.03640   0.03693   2.00522
   A20        1.88205   0.00085   0.00000  -0.00253  -0.00280   1.87925
   A21        1.91554  -0.00333   0.00000  -0.02556  -0.02596   1.88958
   A22        1.91199  -0.00137   0.00000  -0.01313  -0.01350   1.89849
   A23        1.83261   0.00125   0.00000   0.00838   0.00842   1.84103
   A24        1.94384   0.00321   0.00000   0.03164   0.03212   1.97597
   A25        1.90418  -0.00111   0.00000  -0.00279  -0.00283   1.90135
   A26        1.93366  -0.00306   0.00000  -0.02439  -0.02472   1.90895
   A27        1.89949   0.00106   0.00000  -0.00078  -0.00108   1.89841
   A28        1.94617  -0.00121   0.00000  -0.01126  -0.01154   1.93464
   A29        1.75170  -0.00015   0.00000  -0.00167  -0.00168   1.75003
   A30        2.46023   0.00035   0.00000   0.00108   0.00108   2.46131
   A31        2.62680   0.00032   0.00000   0.00112   0.00112   2.62792
   A32        1.79834  -0.00052   0.00000  -0.00296  -0.00296   1.79538
   A33        2.91270   0.00059   0.00000   0.00222   0.00222   2.91492
   A34        1.80047  -0.00033   0.00000  -0.00188  -0.00188   1.79859
   A35        2.01437  -0.00336   0.00000  -0.03026  -0.03125   1.98312
   A36        1.94073  -0.00191   0.00000  -0.03631  -0.03954   1.90120
   A37        1.87819   0.00114   0.00000   0.00405   0.00379   1.88199
   A38        1.94006  -0.00159   0.00000  -0.03589  -0.03891   1.90116
   A39        1.89028  -0.00028   0.00000  -0.00463  -0.00465   1.88563
   A40        1.78380   0.00752   0.00000   0.12505   0.12600   1.90981
   A41        1.91114  -0.00049   0.00000  -0.00279  -0.00279   1.90834
   A42        3.10105  -0.00017   0.00000  -0.00058  -0.00058   3.10048
   A43        3.05050   0.00050   0.00000   0.00186   0.00186   3.05236
    D1       -0.00852   0.00012   0.00000   0.00063   0.00063  -0.00789
    D2        2.85904   0.00017   0.00000   0.00355   0.00356   2.86259
    D3       -2.23552   0.00042   0.00000   0.00006  -0.00001  -2.23553
    D4        0.63203   0.00047   0.00000   0.00298   0.00292   0.63495
    D5        2.16251  -0.00057   0.00000  -0.00076  -0.00069   2.16182
    D6       -1.25312  -0.00052   0.00000   0.00216   0.00224  -1.25089
    D7        0.00135  -0.00016   0.00000  -0.00141  -0.00141  -0.00006
    D8        2.33523  -0.00017   0.00000  -0.00097  -0.00096   2.33427
    D9        2.22418  -0.00033   0.00000  -0.00049  -0.00040   2.22378
   D10       -1.72512  -0.00034   0.00000  -0.00005   0.00005  -1.72508
   D11       -2.14761   0.00026   0.00000   0.00043   0.00033  -2.14728
   D12        0.18627   0.00026   0.00000   0.00087   0.00078   0.18705
   D13       -0.62700  -0.00027   0.00000  -0.00033  -0.00030  -0.62730
   D14       -2.94502   0.00062   0.00000   0.01117   0.01119  -2.93383
   D15       -2.97830   0.00039   0.00000   0.00247   0.00247  -2.97583
   D16        0.98687   0.00128   0.00000   0.01396   0.01396   1.00082
   D17        1.31058   0.00045   0.00000   0.00081   0.00087   1.31145
   D18       -1.00743   0.00134   0.00000   0.01231   0.01236  -0.99508
   D19        2.82890   0.00040   0.00000  -0.00712  -0.00716   2.82174
   D20       -1.14313  -0.00046   0.00000  -0.01154  -0.01155  -1.15469
   D21        0.85663  -0.00029   0.00000  -0.00964  -0.00970   0.84693
   D22        0.00069   0.00009   0.00000   0.00244   0.00244   0.00313
   D23       -2.70954  -0.00023   0.00000  -0.00413  -0.00412  -2.71366
   D24        0.12318  -0.00024   0.00000  -0.00871  -0.00870   0.11447
   D25        2.81937   0.00004   0.00000  -0.00198  -0.00198   2.81739
   D26        0.03388   0.00017   0.00000   0.00218   0.00217   0.03605
   D27       -2.46587  -0.00022   0.00000  -0.00091  -0.00091  -2.46677
   D28       -1.16683   0.00006   0.00000   0.00550   0.00550  -1.16133
   D29        1.08876   0.00018   0.00000   0.00783   0.00783   1.09659
   D30       -3.03565  -0.00048   0.00000  -0.00236  -0.00214  -3.03779
   D31       -0.99721   0.00031   0.00000  -0.00332  -0.00342  -1.00063
   D32        1.12194   0.00049   0.00000   0.00339   0.00349   1.12543
   D33        0.95878   0.00005   0.00000   0.00891   0.00908   0.96787
   D34        2.99722   0.00084   0.00000   0.00795   0.00781   3.00503
   D35       -1.16682   0.00102   0.00000   0.01467   0.01471  -1.15210
   D36       -3.10027   0.00091   0.00000   0.00738   0.00715  -3.09312
   D37       -1.00646  -0.00029   0.00000   0.00012   0.00010  -1.00636
   D38        1.14931  -0.00044   0.00000   0.00524   0.00536   1.15467
   D39       -1.15750   0.00251   0.00000   0.03209   0.03143  -1.12607
   D40        1.07297  -0.00433   0.00000  -0.07696  -0.07633   0.99664
   D41        3.01310   0.00422   0.00000   0.05490   0.05456   3.06766
   D42        3.01269   0.00110   0.00000   0.02054   0.02018   3.03287
   D43       -1.04003  -0.00574   0.00000  -0.08851  -0.08758  -1.12761
   D44        0.90010   0.00282   0.00000   0.04335   0.04331   0.94341
   D45        0.94942   0.00287   0.00000   0.04669   0.04605   0.99547
   D46       -3.10330  -0.00397   0.00000  -0.06236  -0.06171   3.11818
   D47       -1.16316   0.00459   0.00000   0.06950   0.06917  -1.09399
   D48        1.21235  -0.00297   0.00000  -0.03740  -0.03676   1.17559
   D49       -1.01845   0.00403   0.00000   0.07182   0.07131  -0.94714
[...]
                 (A) (A) (A) (A) (A) (A) (A) (A) (A) (A) (A) (A)
                 (A) (A) (A) (A) (A) (A) (A) (A) (A) (A) (A) (A)
                 (A) (A) (A) (A) (A) (A) (A) (A) (A) (A) (A) (A)
                 (A) (A) (A) (A)
 The electronic state is 1-A.
 Alpha  occ. eigenvalues --  -88.86488 -77.13989 -19.14872 -19.13209 -19.13207
 Alpha  occ. eigenvalues --  -19.12535 -19.10866 -19.10473 -14.32438 -10.23072
 Alpha  occ. eigenvalues --  -10.20533 -10.20481  -7.92485  -6.61382  -5.88854
 Alpha  occ. eigenvalues --   -5.88556  -5.87973  -4.77686  -4.77517  -4.77397
 Alpha  occ. eigenvalues --   -1.02269  -1.00007  -0.99452  -0.98932  -0.98208
 Alpha  occ. eigenvalues --   -0.93303  -0.89020  -0.78040  -0.71627  -0.63746
 Alpha  occ. eigenvalues --   -0.59215  -0.54742  -0.51207  -0.50720  -0.50377
 Alpha  occ. eigenvalues --   -0.50278  -0.46216  -0.46079  -0.43345  -0.42673
 Alpha  occ. eigenvalues --   -0.40823  -0.39496  -0.39004  -0.38604  -0.37499
 Alpha  occ. eigenvalues --   -0.36957  -0.35892  -0.35659  -0.33233  -0.31235
 Alpha  occ. eigenvalues --   -0.30261  -0.30179  -0.29764  -0.29431  -0.28760
 Alpha  occ. eigenvalues --   -0.28155  -0.27492  -0.25066  -0.22355
 Alpha virt. eigenvalues --   -0.00567  -0.00015   0.01070   0.02047   0.02419
 Alpha virt. eigenvalues --    0.02973   0.04216   0.04261   0.05251   0.05437
 Alpha virt. eigenvalues --    0.07014   0.07834   0.08044   0.08570   0.08882
 Alpha virt. eigenvalues --    0.09679   0.09931   0.10535   0.10650   0.11623
 Alpha virt. eigenvalues --    0.12570   0.13100   0.13412   0.13617   0.14103
 Alpha virt. eigenvalues --    0.14577   0.14714   0.14972   0.15647   0.15938
 Alpha virt. eigenvalues --    0.16522   0.16850   0.17325   0.17923   0.18251
 Alpha virt. eigenvalues --    0.18270   0.19090   0.19725   0.20258   0.20382
 Alpha virt. eigenvalues --    0.21008   0.21424   0.21875   0.21969   0.22322
 Alpha virt. eigenvalues --    0.22618   0.24166   0.24266   0.24275   0.25216
 Alpha virt. eigenvalues --    0.25789   0.26649   0.26994   0.27224   0.27670
 Alpha virt. eigenvalues --    0.28371   0.28927   0.30065   0.31293   0.31707
 Alpha virt. eigenvalues --    0.32338   0.32819   0.34008   0.34765   0.35174
 Alpha virt. eigenvalues --    0.35718   0.36924   0.37246   0.37760   0.38518
 Alpha virt. eigenvalues --    0.39445   0.40139   0.41181   0.42213   0.42467
 Alpha virt. eigenvalues --    0.42916   0.44078   0.44957   0.46094   0.47319
 Alpha virt. eigenvalues --    0.47941   0.48523   0.50366   0.50817   0.52094
 Alpha virt. eigenvalues --    0.53730   0.54206   0.54559   0.56104   0.57332
 Alpha virt. eigenvalues --    0.58011   0.59012   0.61060   0.61785   0.62490
 Alpha virt. eigenvalues --    0.63103   0.64646   0.65472   0.66356   0.68078
 Alpha virt. eigenvalues --    0.69723   0.70624   0.71169   0.71333   0.72515
 Alpha virt. eigenvalues --    0.73408   0.74773   0.75523   0.75722   0.77015
 Alpha virt. eigenvalues --    0.77251   0.77497   0.78431   0.79611   0.79966
 Alpha virt. eigenvalues --    0.80104   0.80928   0.82467   0.83044   0.83704
 Alpha virt. eigenvalues --    0.84447   0.86312   0.86761   0.87341   0.88158
 Alpha virt. eigenvalues --    0.88406   0.89112   0.90073   0.90961   0.92013
 Alpha virt. eigenvalues --    0.92862   0.93271   0.94232   0.95645   0.96220
 Alpha virt. eigenvalues --    0.97521   0.98475   0.99107   1.00006   1.00957
 Alpha virt. eigenvalues --    1.01752   1.02846   1.03201   1.03444   1.03657
 Alpha virt. eigenvalues --    1.06063   1.06340   1.07275   1.07574   1.09136
 Alpha virt. eigenvalues --    1.09726   1.10686   1.11668   1.12424   1.13075
 Alpha virt. eigenvalues --    1.13389   1.14114   1.14811   1.15207   1.16361
 Alpha virt. eigenvalues --    1.17067   1.18370   1.18421   1.20156   1.20597
 Alpha virt. eigenvalues --    1.21921   1.23002   1.23170   1.24203   1.25019
 Alpha virt. eigenvalues --    1.25275   1.26286   1.28300   1.28908   1.30160
 Alpha virt. eigenvalues --    1.31926   1.33343   1.35063   1.35769   1.36346
 Alpha virt. eigenvalues --    1.38057   1.39948   1.40976   1.41673   1.42407
 Alpha virt. eigenvalues --    1.44579   1.47145   1.48748   1.50208   1.52347
 Alpha virt. eigenvalues --    1.53796   1.55045   1.56117   1.56550   1.58745
 Alpha virt. eigenvalues --    1.59525   1.60487   1.63637   1.65878   1.66654
 Alpha virt. eigenvalues --    1.67981   1.71467   1.72035   1.73924   1.75026
 Alpha virt. eigenvalues --    1.75828   1.76579   1.76835   1.78343   1.78877
 Alpha virt. eigenvalues --    1.80325   1.80894   1.81874   1.83535   1.83696
 Alpha virt. eigenvalues --    1.84008   1.86160   1.86941   1.87362   1.89589
 Alpha virt. eigenvalues --    1.90949   1.91637   1.92608   1.94571   1.95986
 Alpha virt. eigenvalues --    1.96884   1.99142   2.00254   2.00518   2.02582
 Alpha virt. eigenvalues --    2.04988   2.05362   2.06066   2.08362   2.09975
 Alpha virt. eigenvalues --    2.11462   2.12944   2.13650   2.15370   2.19452
 Alpha virt. eigenvalues --    2.19794   2.23093   2.23422   2.25781   2.25864
 Alpha virt. eigenvalues --    2.30013   2.31623   2.33693   2.35596   2.36144
 Alpha virt. eigenvalues --    2.36515   2.37722   2.38375   2.40459   2.41899
 Alpha virt. eigenvalues --    2.44245   2.45827   2.46042   2.48810   2.50942
 Alpha virt. eigenvalues --    2.52347   2.54426   2.55008   2.56822   2.59261
 Alpha virt. eigenvalues --    2.61413   2.62048   2.63328   2.64577   2.65548
 Alpha virt. eigenvalues --    2.70316   2.71588   2.74937   2.75990   2.79631
 Alpha virt. eigenvalues --    2.81612   2.89149   3.05054   3.11263   3.16505
 Alpha virt. eigenvalues --    3.19412   3.21495   3.22359   3.23926   3.25957
 Alpha virt. eigenvalues --    3.26807   3.29626   3.31226   3.33248   3.34844
 Alpha virt. eigenvalues --    3.36245   3.39612   3.40355   3.41349   3.44132
 Alpha virt. eigenvalues --    3.45297   3.50137   3.51260   3.52279   3.55858
 Alpha virt. eigenvalues --    3.56647   3.58693   3.59101   3.60081   3.67779
 Alpha virt. eigenvalues --    3.69315   3.74347   3.77625   3.80657   3.81469
 Alpha virt. eigenvalues --    3.89294   3.92032   3.95595   4.93137   4.95504
 Alpha virt. eigenvalues --    5.16842   5.31119   5.39141   5.41209   5.43093
 Alpha virt. eigenvalues --    5.46590   5.49093   5.49987   5.51992   5.52366
 Alpha virt. eigenvalues --    5.54653   5.57448   5.59213   5.62431   5.72556
 Alpha virt. eigenvalues --    5.75080   6.83790   6.85950   6.86995   6.90686
 Alpha virt. eigenvalues --    6.91535   6.99647   7.05298   8.76091   9.01727
 Alpha virt. eigenvalues --    9.12140  10.15865  20.75363  20.77090  20.88866
 Alpha virt. eigenvalues --   21.00215  21.00969  35.06757  35.29651  35.40494
 Alpha virt. eigenvalues --   36.87805  36.95401  36.99538  37.00840  37.01527
 Alpha virt. eigenvalues --   37.02192  37.02488  37.03398  37.06460  37.07232
 Alpha virt. eigenvalues --   37.09798  37.19314  37.23022  59.16309
          Condensed to atoms (all electrons):
              1          2          3          4          5          6
     1  P   13.391854   0.062908  -0.019803   0.298897  -0.011042   0.213793
     2  O    0.062908   9.094405  -0.079470  -0.053020  -0.003019  -0.018753
     3  O   -0.019803  -0.079470   9.172168  -0.031429   0.000769   0.003548
     4  N    0.298897  -0.053020  -0.031429   6.855581   0.370285   0.007378
     5  H   -0.011042  -0.003019   0.000769   0.370285   0.429863  -0.002962
     6  S    0.213793  -0.018753   0.003548   0.007378  -0.002962  15.963746
     7  C   -0.196417   0.020897   0.013845   0.193149  -0.037788  -0.026056
     8  H    0.010108  -0.000582  -0.000430  -0.024655  -0.002776  -0.000880
     9  H   -0.003767   0.001764   0.000273  -0.036370   0.002168   0.001185
    10  C   -0.043642   0.000856  -0.004825  -0.027535   0.001452   0.124412
    11  H    0.008309  -0.000275  -0.000865  -0.000612   0.000009  -0.049414
    12  O   -0.020946  -0.029169  -0.014830   0.000349  -0.000018   0.002833
    13  H    0.007437   0.001227   0.010969  -0.000086   0.000000  -0.000447
    14  H    0.011035   0.018366   0.000961   0.000044  -0.000001  -0.000615
    15  O   -0.015544  -0.044286  -0.002512  -0.004181   0.005134  -0.002215
    16  H    0.025463   0.020300  -0.000783  -0.003223  -0.000522  -0.002737
    17  H    0.019664   0.002318  -0.000400   0.001963  -0.000461  -0.002214
    18  O   -0.008517  -0.001694  -0.040971   0.000699   0.000013  -0.004006
    19  H    0.014124  -0.000437   0.019430  -0.000440   0.000001  -0.003021
    20  H    0.007062  -0.000103   0.005508  -0.000219   0.000000  -0.002628
    21  C   -0.070590   0.010240   0.026859  -0.043167   0.003970  -0.040553
    22  H   -0.003628  -0.000014  -0.000022   0.001891   0.000175   0.001686
    23  H   -0.011828   0.000757  -0.005415   0.000297  -0.000011  -0.019962
    24  O    0.001304  -0.000349  -0.000760   0.012427  -0.000259   0.006407
    25  H    0.000218   0.000005   0.000004  -0.000405   0.000000  -0.000835
              7          8          9         10         11         12
     1  P   -0.196417   0.010108  -0.003767  -0.043642   0.008309  -0.020946
     2  O    0.020897  -0.000582   0.001764   0.000856  -0.000275  -0.029169
     3  O    0.013845  -0.000430   0.000273  -0.004825  -0.000865  -0.014830
     4  N    0.193149  -0.024655  -0.036370  -0.027535  -0.000612   0.000349
     5  H   -0.037788  -0.002776   0.002168   0.001452   0.000009  -0.000018
     6  S   -0.026056  -0.000880   0.001185   0.124412  -0.049414   0.002833
     7  C    5.352888   0.374261   0.380818  -0.121228   0.002330   0.001345
     8  H    0.374261   0.458483  -0.015130   0.006347  -0.000019  -0.000002
     9  H    0.380818  -0.015130   0.454179   0.007762  -0.000048   0.000004
    10  C   -0.121228   0.006347   0.007762   5.695834   0.382485   0.000826
    11  H    0.002330  -0.000019  -0.000048   0.382485   0.451951  -0.000001
    12  O    0.001345  -0.000002   0.000004   0.000826  -0.000001   8.070624
    13  H    0.000440   0.000000   0.000001   0.000012   0.000000   0.299765
    14  H    0.000048   0.000000   0.000000  -0.000073   0.000000   0.294821
    15  O   -0.000057   0.000060  -0.000065  -0.001871   0.000016  -0.000209
    16  H   -0.000850   0.000001   0.000001   0.000117   0.000000   0.000093
    17  H   -0.001637   0.000000   0.000000   0.000058   0.000000   0.000000
    18  O    0.001371   0.000001   0.000076  -0.021643   0.000669   0.000019
    19  H   -0.001272   0.000000  -0.000081   0.002033   0.000000  -0.000160
    20  H    0.000008   0.000000  -0.000005   0.005132   0.000019  -0.000031
    21  C    0.283819  -0.013517  -0.001939   0.247143   0.001729   0.000101
    22  H   -0.032151   0.000466   0.001872  -0.031611  -0.001338   0.000000
    23  H   -0.005504   0.000007   0.003203   0.399824  -0.012081  -0.000003
    24  O   -0.007652   0.000546  -0.001223   0.022895  -0.004280   0.000003
    25  H    0.008655  -0.000168  -0.000163  -0.015763   0.001508   0.000000
             13         14         15         16         17         18
     1  P    0.007437   0.011035  -0.015544   0.025463   0.019664  -0.008517
     2  O    0.001227   0.018366  -0.044286   0.020300   0.002318  -0.001694
     3  O    0.010969   0.000961  -0.002512  -0.000783  -0.000400  -0.040971
     4  N   -0.000086   0.000044  -0.004181  -0.003223   0.001963   0.000699
     5  H    0.000000  -0.000001   0.005134  -0.000522  -0.000461   0.000013
     6  S   -0.000447  -0.000615  -0.002215  -0.002737  -0.002214  -0.004006
     7  C    0.000440   0.000048  -0.000057  -0.000850  -0.001637   0.001371
     8  H    0.000000   0.000000   0.000060   0.000001   0.000000   0.000001
     9  H    0.000001   0.000000  -0.000065   0.000001   0.000000   0.000076
    10  C    0.000012  -0.000073  -0.001871   0.000117   0.000058  -0.021643
    11  H    0.000000   0.000000   0.000016   0.000000   0.000000   0.000669
    12  O    0.299765   0.294821  -0.000209   0.000093   0.000000   0.000019
    13  H    0.400319  -0.015243   0.000004   0.000000   0.000000  -0.000191
    14  H   -0.015243   0.381876   0.000161   0.000038   0.000001  -0.000009
    15  O    0.000004   0.000161   8.127164   0.280627   0.293454  -0.000028
    16  H    0.000000   0.000038   0.280627   0.345683  -0.012155   0.000000
    17  H    0.000000   0.000001   0.293454  -0.012155   0.417706   0.000000
    18  O   -0.000191  -0.000009  -0.000028   0.000000   0.000000   8.139318
    19  H   -0.000002   0.000002   0.000002   0.000000   0.000000   0.285545
    20  H   -0.000001   0.000000   0.000000   0.000000   0.000000   0.296837
    21  C   -0.000140  -0.000088   0.000013  -0.001260  -0.001319  -0.004864
    22  H    0.000000   0.000000  -0.000353   0.000003  -0.000006   0.000023
    23  H    0.000000   0.000000  -0.000019   0.000000   0.000000   0.008381
    24  O    0.000000   0.000000   0.000035   0.000015   0.000020   0.001910
    25  H    0.000000   0.000000   0.000002   0.000000   0.000000  -0.000033
             19         20         21         22         23         24
     1  P    0.014124   0.007062  -0.070590  -0.003628  -0.011828   0.001304
     2  O   -0.000437  -0.000103   0.010240  -0.000014   0.000757  -0.000349
     3  O    0.019430   0.005508   0.026859  -0.000022  -0.005415  -0.000760
     4  N   -0.000440  -0.000219  -0.043167   0.001891   0.000297   0.012427
     5  H    0.000001   0.000000   0.003970   0.000175  -0.000011  -0.000259
     6  S   -0.003021  -0.002628  -0.040553   0.001686  -0.019962   0.006407
     7  C   -0.001272   0.000008   0.283819  -0.032151  -0.005504  -0.007652
     8  H    0.000000   0.000000  -0.013517   0.000466   0.000007   0.000546
     9  H   -0.000081  -0.000005  -0.001939   0.001872   0.003203  -0.001223
    10  C    0.002033   0.005132   0.247143  -0.031611   0.399824   0.022895
    11  H    0.000000   0.000019   0.001729  -0.001338  -0.012081  -0.004280
    12  O   -0.000160  -0.000031   0.000101   0.000000  -0.000003   0.000003
    13  H   -0.000002  -0.000001  -0.000140   0.000000   0.000000   0.000000
    14  H    0.000002   0.000000  -0.000088   0.000000   0.000000   0.000000
    15  O    0.000002   0.000000   0.000013  -0.000353  -0.000019   0.000035
    16  H    0.000000   0.000000  -0.001260   0.000003   0.000000   0.000015
    17  H    0.000000   0.000000  -0.001319  -0.000006   0.000000   0.000020
    18  O    0.285545   0.296837  -0.004864   0.000023   0.008381   0.001910
    19  H    0.329947  -0.013853  -0.000098  -0.000001  -0.000650  -0.000067
    20  H   -0.013853   0.422695  -0.000134   0.000000  -0.000682  -0.000007
    21  C   -0.000098  -0.000134   4.853205   0.421435   0.007253  -0.140205
    22  H   -0.000001   0.000000   0.421435   0.491106   0.001556  -0.042174
    23  H   -0.000650  -0.000682   0.007253   0.001556   0.465292  -0.004271
    24  O   -0.000067  -0.000007  -0.140205  -0.042174  -0.004271   8.626263
    25  H    0.000000   0.000000  -0.010435  -0.003003   0.000140   0.314576
             25
     1  P    0.000218
     2  O    0.000005
     3  O    0.000004
     4  N   -0.000405
     5  H    0.000000
     6  S   -0.000835
     7  C    0.008655
     8  H   -0.000168
     9  H   -0.000163
    10  C   -0.015763
    11  H    0.001508
    12  O    0.000000
    13  H    0.000000
    14  H    0.000000
    15  O    0.000002
    16  H    0.000000
    17  H    0.000000
    18  O   -0.000033
    19  H    0.000000
    20  H    0.000000
    21  C   -0.010435
    22  H   -0.003003
    23  H    0.000140
    24  O    0.314576
    25  H    0.413031
 Mulliken atomic charges:
              1
     1  P    1.333549
     2  O   -1.002870
     3  O   -1.051819
     4  N   -0.517615
     5  H    0.245019
     6  S   -0.147692
     7  C   -0.203262
     8  H    0.207881
     9  H    0.205485
    10  C   -0.628995
    11  H    0.219908
    12  O   -0.605415
    13  H    0.295937
    14  H    0.308674
    15  O   -0.635332
    16  H    0.349189
    17  H    0.283007
    18  O   -0.652906
    19  H    0.368998
    20  H    0.280402
    21  C    0.472541
    22  H    0.194089
    23  H    0.173718
    24  O   -0.785156
    25  H    0.292665
 Sum of Mulliken charges=  -1.00000
 Atomic charges with hydrogens summed into heavy atoms:
              1
     1  P    1.333549
     2  O   -1.002870
     3  O   -1.051819
     4  N   -0.272596
     5  H    0.000000
     6  S   -0.147692
     7  C    0.210104
     8  H    0.000000
     9  H    0.000000
    10  C   -0.235369
    11  H    0.000000
    12  O   -0.000804
    13  H    0.000000
    14  H    0.000000
    15  O   -0.003135
    16  H    0.000000
    17  H    0.000000
    18  O   -0.003506
    19  H    0.000000
    20  H    0.000000
    21  C    0.666629
    22  H    0.000000
    23  H    0.000000
    24  O   -0.492491
    25  H    0.000000
 Sum of Mulliken charges=  -1.00000
 Electronic spatial extent (au):  <R**2>=  3293.5879
 Charge=    -1.0000 electrons
 Dipole moment (field-independent basis, Debye):
    X=    11.0766    Y=    -2.5107    Z=     3.8486  Tot=    11.9919
 Quadrupole moment (field-independent basis, Debye-Ang):
   XX=  -123.8226   YY=  -126.4651   ZZ=   -95.7924
   XY=    -4.6635   XZ=     3.5947   YZ=     4.2368
 Traceless Quadrupole moment (field-independent basis, Debye-Ang):
   XX=    -8.4625   YY=   -11.1051   ZZ=    19.5676
   XY=    -4.6635   XZ=     3.5947   YZ=     4.2368
 Octapole moment (field-independent basis, Debye-Ang**2):
  XXX=   154.3610  YYY=    -3.5064  ZZZ=     1.0668  XYY=    25.6623
  XXY=   -24.0477  XXZ=    50.6083  XZZ=     3.3931  YZZ=     2.0247
  YYZ=    20.3984  XYZ=    -3.3138
 Hexadecapole moment (field-independent basis, Debye-Ang**3):
 XXXX= -2669.3065 YYYY= -2026.3254 ZZZZ=  -633.5272 XXXY=   165.2760
 XXXZ=    78.5242 YYYX=  -168.2203 YYYZ=    38.2669 ZZZX=    -8.2063
 ZZZY=     0.4235 XXYY=  -684.8675 XXZZ=  -491.4134 YYZZ=  -288.4930
 XXYZ=    22.5728 YYXZ=    -0.5115 ZZXY=     1.4880
 N-N= 1.076910275423D+03 E-N=-5.406852990851D+03  KE= 1.362401986628D+03
 Calculating spin-rotation constants.
 Leave Link  601 at Sun Aug  3 15:43:56 2008, MaxMem= 1073741824 cpu:     154.3
 (Enter /usr/local/Chem-Apps/g03_d01/g03/l9999.exe)
 1\1\ SGI ALTIX 4700 1.6GHZ/9MB-MAGELLAN\SP\RB3LYP\Gen\C3H13N1O6P1S1(1-
 )\IK1\03-Aug-2008\0\\#p nmr=giao b3lyp/Gen scf=tight integral=(grid=ul
 trafine) scrf=(pcm,solvent=water,read) guess=read geom=checkpoint\\Mol
 ecule 12, NMR.\\-1,1\P,0,-2.1176435594,-0.0930545403,-0.2309941048\O,0
 ,-3.417936065,-0.8971629808,-0.0688490341\O,0,-2.1232467047,1.35869248
 75,-0.7261675992\N,0,-1.0233987577,-1.0085074424,-1.1823261473\H,0,-1.
 1208929028,-1.9985360666,-0.9602204189\S,0,-1.1377102835,-0.1442667951
 ,1.7508560601\C,0,0.3672761535,-0.5586817991,-1.2424896046\H,0,0.91155
 84988,-1.1757437761,-1.9718078771\H,0,0.381744019,0.4763459487,-1.6092
 189236\C,0,0.556078053,0.3293158455,1.1608721261\H,0,1.1936619078,0.29
 54573253,2.0577318649\O,0,-5.2107085381,1.2869870817,-0.9287329069\H,0
 ,-4.3576516266,1.7370841392,-1.0319019648\H,0,-4.9096480064,0.41460140
 13,-0.616857701\O,0,-2.6185425824,-3.510939462,0.3333162433\H,0,-3.038
 6469271,-2.630482609,0.1761454227\H,0,-2.2098612127,-3.3983232425,1.19
 98311746\O,0,-0.8784537123,3.5366363839,0.3918715563\H,0,-1.3259023709
 ,2.776709928,-0.0522093642\H,0,-1.2916763243,3.5495506145,1.2624363268
 \C,0,1.1172087233,-0.6210034673,0.0979012143\H,0,1.0751367715,-1.65470
 12305,0.4849543993\H,0,0.5376104786,1.3615363985,0.7873628597\O,0,2.48
 4298036,-0.2793466381,-0.2115861866\H,0,2.9645595325,-0.1686509042,0.6
 17310725\\Version=IA64L-G03RevD.01\State=1-A\HF=-1368.2990856\RMSD=3.7
 04e-09\Thermal=0.\Dipole=4.0877858,-1.2232561,2.0132308\PG=C01 [X(C3H1
 3N1O6P1S1)]\\@


 COLLEGE PROFESSOR: SOMEONE WHO TALKS IN OTHER PEOPLE'S SLEEP.
 Job cpu time:  0 days  0 hours 10 minutes 53.7 seconds.
 File lengths (MBytes):  RWF=    243 Int=      0 D2E=      0 Chk=     23 Scr=      1
 Normal termination of Gaussian 03 at Sun Aug  3 15:43:56 2008.
