 Entering Gaussian System, Link 0=/usr/local/Chem-Apps/g03_d01/g03/g03
 Initial command:
 /usr/local/Chem-Apps/g03_d01/g03/l1.exe /scratch/LSF_69102/Gau-28139.inp -scrdir=/scratch/LSF_69102/
 Entering Link 1 = /usr/local/Chem-Apps/g03_d01/g03/l1.exe PID=     28140.
  
 Copyright (c) 1988,1990,1992,1993,1995,1998,2003,2004, Gaussian, Inc.
                  All Rights Reserved.
  
 This is the Gaussian(R) 03 program.  It is based on the
 the Gaussian(R) 98 system (copyright 1998, Gaussian, Inc.),
 the Gaussian(R) 94 system (copyright 1995, Gaussian, Inc.),
 the Gaussian 92(TM) system (copyright 1992, Gaussian, Inc.),
 the Gaussian 90(TM) system (copyright 1990, Gaussian, Inc.),
 the Gaussian 88(TM) system (copyright 1988, Gaussian, Inc.),
 the Gaussian 86(TM) system (copyright 1986, Carnegie Mellon
 University), and the Gaussian 82(TM) system (copyright 1983,
 Carnegie Mellon University). Gaussian is a federally registered
 trademark of Gaussian, Inc.
  
 This software contains proprietary and confidential information,
 including trade secrets, belonging to Gaussian, Inc.
  
 This software is provided under written license and may be
 used, copied, transmitted, or stored only in accord with that
 written license.
  
 The following legend is applicable only to US Government
 contracts under FAR:
  
                    RESTRICTED RIGHTS LEGEND
  
 Use, reproduction and disclosure by the US Government is
 subject to restrictions as set forth in subparagraphs (a)
 and (c) of the Commercial Computer Software - Restricted
 Rights clause in FAR 52.227-19.
  
 Gaussian, Inc.
 340 Quinnipiac St., Bldg. 40, Wallingford CT 06492
  
  
 ---------------------------------------------------------------
 Warning -- This program may not be used in any manner that
 competes with the business of Gaussian, Inc. or will provide
 assistance to any competitor of Gaussian, Inc.  The licensee
 of this program is prohibited from giving any competitor of
 Gaussian, Inc. access to this program.  By using this program,
 the user acknowledges that Gaussian, Inc. is engaged in the
 business of creating and licensing software in the field of
 computational chemistry and represents and warrants to the
 licensee that it is not a competitor of Gaussian, Inc. and that
 it will not use this program in any manner prohibited above.
 ---------------------------------------------------------------
  

 Cite this work as:
 Gaussian 03, Revision D.01,
 M. J. Frisch, G. W. Trucks, H. B. Schlegel, G. E. Scuseria, 
 M. A. Robb, J. R. Cheeseman, J. A. Montgomery, Jr., T. Vreven, 
 K. N. Kudin, J. C. Burant, J. M. Millam, S. S. Iyengar, J. Tomasi, 
 V. Barone, B. Mennucci, M. Cossi, G. Scalmani, N. Rega, 
 G. A. Petersson, H. Nakatsuji, M. Hada, M. Ehara, K. Toyota, 
 R. Fukuda, J. Hasegawa, M. Ishida, T. Nakajima, Y. Honda, O. Kitao, 
 H. Nakai, M. Klene, X. Li, J. E. Knox, H. P. Hratchian, J. B. Cross, 
 V. Bakken, C. Adamo, J. Jaramillo, R. Gomperts, R. E. Stratmann, 
 O. Yazyev, A. J. Austin, R. Cammi, C. Pomelli, J. W. Ochterski, 
 P. Y. Ayala, K. Morokuma, G. A. Voth, P. Salvador, J. J. Dannenberg, 
 V. G. Zakrzewski, S. Dapprich, A. D. Daniels, M. C. Strain, 
 O. Farkas, D. K. Malick, A. D. Rabuck, K. Raghavachari, 
 J. B. Foresman, J. V. Ortiz, Q. Cui, A. G. Baboul, S. Clifford, 
 J. Cioslowski, B. B. Stefanov, G. Liu, A. Liashenko, P. Piskorz, 
 I. Komaromi, R. L. Martin, D. J. Fox, T. Keith, M. A. Al-Laham, 
 C. Y. Peng, A. Nanayakkara, M. Challacombe, P. M. W. Gill, 
 B. Johnson, W. Chen, M. W. Wong, C. Gonzalez, and J. A. Pople, 
 Gaussian, Inc., Wallingford CT, 2004.
 
 ******************************************
 Gaussian 03:  IA64L-G03RevD.01 13-Oct-2005
                 2-Aug-2008 
 ******************************************
 %Mem=4GB
 %NProcShared=16
 Will use up to   16 processors via shared memory.
 %Chk=molecule_8.chk
 Default route:  MaxDisk=64GB Cachesize=589840
 ----------------------------------------------------------------------
 #p opt=gdiis b3lyp/Gen scf=tight pseudo=read integral=(grid=ultrafine)
 ----------------------------------------------------------------------
 1/4=589840,14=-1,18=20,19=11,26=3,38=1/1,3;
 2/4=589840,9=110,17=6,18=5,40=1/2;
 3/4=589840,5=7,11=2,16=1,17=8,25=1,30=1,74=-5,75=5/1,2,3;
 4/4=589840/1;
 5/4=589840,5=2,32=2,38=5/2;
 6/4=589840,7=2,8=2,9=2,10=2,28=1/1;
 7/4=589840/1,2,3,16;
 1/4=589840,14=-1,18=20,19=11/3(3);
 2/4=589840,9=110/2;
 6/4=589840,7=2,8=2,9=2,10=2,19=2,28=1/1;
 99/4=589840/99;
 2/4=589840,9=110/2;
 3/4=589840,5=7,6=1,11=2,16=1,17=8,25=1,30=1,74=-5,75=5,82=7/1,2,3;
 4/4=589840,5=5,16=3/1;
 5/4=589840,5=2,32=2,38=5/2;
 7/4=589840/1,2,3,16;
 1/4=589840,14=-1,18=20,19=11/3(-5);
 2/4=589840,9=110/2;
 6/4=589840,7=2,8=2,9=2,10=2,19=2,28=1/1;
 99/4=589840,9=1/99;
 Leave Link    1 at Sat Aug  2 15:02:14 2008, MaxMem=  536870912 cpu:       1.8
 (Enter /usr/local/Chem-Apps/g03_d01/g03/l101.exe)
 ---------------------
 Molecule 8, geometry.
 ---------------------
 Symbolic Z-matrix:
 Charge =  0 Multiplicity = 1
 P                    -2.39481  -0.61659  -0.62253 
 O                    -2.46255   0.58753  -1.54654 
 O                    -3.58547  -1.41623  -0.12661 
 N                    -1.51266   0.05071   0.9389 
 H                    -1.69731   1.07825   1.01105 
 S                    -0.72378  -1.86868  -1.13631 
 C                    -0.04375  -0.21575   0.9347 
 H                     0.4071    0.28018   1.80215 
 H                     0.10838  -1.29723   1.0242 
 C                     0.98799  -0.83229  -1.32092 
 H                     1.39715  -0.43413  -2.25251 
 O                    -3.18682  -1.52932   2.56538 
 H                    -3.55009  -1.70995   1.66874 
 H                    -3.14713  -2.37714   3.02073 
 O                    -2.04379   2.77594   1.20119 
 H                    -1.43776   3.51138   1.34058 
 H                    -2.60278   3.02062   0.41894 
 H                    -1.96971  -0.42323   1.73989 
 O                    -3.44235   3.05489  -1.06692 
 H                    -3.18802   2.14978  -1.36872 
 H                    -4.40521   3.08206  -1.09841 
 C                     0.59981   0.28402  -0.37207 
 H                    -0.10275   0.8879   -0.90745 
 H                     1.76782  -1.45322  -0.93208 
 I                     2.3037    1.42573   0.07877 
 
                    Isotopes and Nuclear Properties:
 (Nuclear quadrupole moments (NQMom) in fm**2, nuclear magnetic moments (NMagM)
  in nuclear magnetons)

  Atom         1           2           3           4           5           6           7           8           9          10
 IAtWgt=          31          16          16          14           1          32          12           1           1          12
 AtmWgt=  30.9737634  15.9949146  15.9949146  14.0030740   1.0078250  31.9720718  12.0000000   1.0078250   1.0078250  12.0000000
 NucSpn=           1           0           0           2           1           0           0           1           1           0
 AtZEff=   0.0000000   0.0000000   0.0000000   0.0000000   0.0000000   0.0000000   0.0000000   0.0000000   0.0000000   0.0000000
 NQMom=    0.0000000   0.0000000   0.0000000   2.0440000   0.0000000   0.0000000   0.0000000   0.0000000   0.0000000   0.0000000
 NMagM=    1.1316000   0.0000000   0.0000000   0.4037610   2.7928460   0.0000000   0.0000000   2.7928460   2.7928460   0.0000000

  Atom        11          12          13          14          15          16          17          18          19          20
 IAtWgt=           1          16           1           1          16           1           1           1          16           1
 AtmWgt=   1.0078250  15.9949146   1.0078250   1.0078250  15.9949146   1.0078250   1.0078250   1.0078250  15.9949146   1.0078250
 NucSpn=           1           0           1           1           0           1           1           1           0           1
 AtZEff=   0.0000000   0.0000000   0.0000000   0.0000000   0.0000000   0.0000000   0.0000000   0.0000000   0.0000000   0.0000000
 NQMom=    0.0000000   0.0000000   0.0000000   0.0000000   0.0000000   0.0000000   0.0000000   0.0000000   0.0000000   0.0000000
 NMagM=    2.7928460   0.0000000   2.7928460   2.7928460   0.0000000   2.7928460   2.7928460   2.7928460   0.0000000   2.7928460

  Atom        21          22          23          24          25
 IAtWgt=           1          12           1           1         127
 AtmWgt=   1.0078250  12.0000000   1.0078250   1.0078250 126.9004000
 NucSpn=           1           0           1           1           5
 AtZEff=   0.0000000   0.0000000   0.0000000   0.0000000   0.0000000
 NQMom=    0.0000000   0.0000000   0.0000000   0.0000000 -71.0000000
 NMagM=    2.7928460   0.0000000   2.7928460   2.7928460   2.8132800
 Leave Link  101 at Sat Aug  2 15:02:14 2008, MaxMem=  536870912 cpu:       0.4
 (Enter /usr/local/Chem-Apps/g03_d01/g03/l103.exe)

 GradGradGradGradGradGradGradGradGradGradGradGradGradGradGradGradGradGrad
 Berny optimization.
 Initialization pass.
                           ----------------------------
                           !    Initial Parameters    !
                           ! (Angstroms and Degrees)  !
 --------------------------                            --------------------------
 ! Name  Definition              Value          Derivative Info.                !
 --------------------------------------------------------------------------------
 ! R1    R(1,2)                  1.5193         estimate D2E/DX2                !
 ! R2    R(1,3)                  1.5176         estimate D2E/DX2                !
 ! R3    R(1,4)                  1.9135         estimate D2E/DX2                !
 ! R4    R(1,6)                  2.1504         estimate D2E/DX2                !
 ! R5    R(2,20)                 1.7316         estimate D2E/DX2                !
 ! R6    R(3,13)                 1.8196         estimate D2E/DX2                !
 ! R7    R(4,5)                  1.0465         estimate D2E/DX2                !
 ! R8    R(4,7)                  1.4929         estimate D2E/DX2                !
 ! R9    R(4,18)                 1.0369         estimate D2E/DX2                !
 ! R10   R(5,15)                 1.7431         estimate D2E/DX2                !
 ! R11   R(6,10)                 2.0096         estimate D2E/DX2                !
 ! R12   R(7,8)                  1.0962         estimate D2E/DX2                !
 ! R13   R(7,9)                  1.0958         estimate D2E/DX2                !
 ! R14   R(7,22)                 1.54           estimate D2E/DX2                !
 ! R15   R(10,11)                1.0926         estimate D2E/DX2                !
 ! R16   R(10,22)                1.5156         estimate D2E/DX2                !
 ! R17   R(10,24)                1.07           estimate D2E/DX2                !
 ! R18   R(12,13)                0.9841         estimate D2E/DX2                !
 ! R19   R(12,14)                0.9632         estimate D2E/DX2                !
 ! R20   R(12,18)                1.8402         estimate D2E/DX2                !
 ! R21   R(15,16)                0.9631         estimate D2E/DX2                !
 ! R22   R(15,17)                0.9921         estimate D2E/DX2                !
 ! R23   R(17,19)                1.707          estimate D2E/DX2                !
 ! R24   R(19,20)                0.9874         estimate D2E/DX2                !
 ! R25   R(19,21)                0.9638         estimate D2E/DX2                !
 ! R26   R(22,23)                1.07           estimate D2E/DX2                !
 ! R27   R(22,25)                2.1            estimate D2E/DX2                !
 ! A1    A(2,1,3)              125.5469         estimate D2E/DX2                !
 ! A2    A(2,1,4)              103.9128         estimate D2E/DX2                !
 ! A3    A(2,1,6)              110.5368         estimate D2E/DX2                !
 ! A4    A(3,1,4)              106.1887         estimate D2E/DX2                !
 ! A5    A(3,1,6)              112.3933         estimate D2E/DX2                !
 ! A6    A(4,1,6)               92.2795         estimate D2E/DX2                !
 ! A7    A(1,2,20)             132.1631         estimate D2E/DX2                !
 ! A8    A(1,3,13)             113.0935         estimate D2E/DX2                !
 ! A9    A(1,4,5)              108.5018         estimate D2E/DX2                !
 ! A10   A(1,4,7)              112.8966         estimate D2E/DX2                !
 ! A11   A(1,4,18)             105.531          estimate D2E/DX2                !
 ! A12   A(5,4,7)              110.4299         estimate D2E/DX2                !
 ! A13   A(5,4,18)             108.528          estimate D2E/DX2                !
 ! A14   A(7,4,18)             110.7507         estimate D2E/DX2                !
 ! A15   A(1,6,10)             112.5561         estimate D2E/DX2                !
 ! A16   A(4,7,8)              108.766          estimate D2E/DX2                !
 ! A17   A(4,7,9)              108.2119         estimate D2E/DX2                !
 ! A18   A(4,7,22)             110.8333         estimate D2E/DX2                !
 ! A19   A(8,7,9)              108.9509         estimate D2E/DX2                !
 ! A20   A(8,7,22)             110.6577         estimate D2E/DX2                !
 ! A21   A(9,7,22)             109.3644         estimate D2E/DX2                !
 ! A22   A(6,10,11)            125.8211         estimate D2E/DX2                !
 ! A23   A(6,10,22)             95.98           estimate D2E/DX2                !
 ! A24   A(6,10,24)            106.7472         estimate D2E/DX2                !
 ! A25   A(11,10,22)           111.1793         estimate D2E/DX2                !
 ! A26   A(11,10,24)           104.3819         estimate D2E/DX2                !
 ! A27   A(22,10,24)           112.7412         estimate D2E/DX2                !
 ! A28   A(13,12,14)           106.521          estimate D2E/DX2                !
 ! A29   A(13,12,18)            86.8911         estimate D2E/DX2                !
 ! A30   A(14,12,18)           135.5539         estimate D2E/DX2                !
 ! A31   A(3,13,12)            151.2233         estimate D2E/DX2                !
 ! A32   A(5,15,16)            129.3782         estimate D2E/DX2                !
 ! A33   A(5,15,17)            105.4383         estimate D2E/DX2                !
 ! A34   A(16,15,17)           106.2803         estimate D2E/DX2                !
 ! A35   A(15,17,19)           165.5606         estimate D2E/DX2                !
 ! A36   A(4,18,12)            155.9            estimate D2E/DX2                !
 ! A37   A(17,19,20)            96.9478         estimate D2E/DX2                !
 ! A38   A(17,19,21)           121.3582         estimate D2E/DX2                !
 ! A39   A(20,19,21)           105.8544         estimate D2E/DX2                !
 ! A40   A(2,20,19)            165.0781         estimate D2E/DX2                !
 ! A41   A(7,22,10)            113.5307         estimate D2E/DX2                !
 ! A42   A(7,22,23)            109.4712         estimate D2E/DX2                !
 ! A43   A(7,22,25)            109.4712         estimate D2E/DX2                !
 ! A44   A(10,22,23)           105.7002         estimate D2E/DX2                !
 ! A45   A(10,22,25)           109.0888         estimate D2E/DX2                !
 ! A46   A(23,22,25)           109.4712         estimate D2E/DX2                !
 ! A47   L(4,5,15,1,-1)        181.1644         estimate D2E/DX2                !
 ! A48   L(4,5,15,1,-2)        176.7174         estimate D2E/DX2                !
 ! D1    D(3,1,2,20)            62.6449         estimate D2E/DX2                !
 ! D2    D(4,1,2,20)           -59.3615         estimate D2E/DX2                !
 ! D3    D(6,1,2,20)          -157.21           estimate D2E/DX2                !
 ! D4    D(2,1,3,13)          -132.0059         estimate D2E/DX2                !
 ! D5    D(4,1,3,13)           -10.9979         estimate D2E/DX2                !
 ! D6    D(6,1,3,13)            88.4652         estimate D2E/DX2                !
 ! D7    D(2,1,4,5)             26.9639         estimate D2E/DX2                !
 ! D8    D(2,1,4,7)            -95.7809         estimate D2E/DX2                !
 ! D9    D(2,1,4,18)           143.1176         estimate D2E/DX2                !
 ! D10   D(3,1,4,5)           -107.1099         estimate D2E/DX2                !
 ! D11   D(3,1,4,7)            130.1453         estimate D2E/DX2                !
 ! D12   D(3,1,4,18)             9.0439         estimate D2E/DX2                !
 ! D13   D(6,1,4,5)            138.7756         estimate D2E/DX2                !
 ! D14   D(6,1,4,7)             16.0308         estimate D2E/DX2                !
 ! D15   D(6,1,4,18)          -105.0706         estimate D2E/DX2                !
 ! D16   D(2,1,6,10)            49.5392         estimate D2E/DX2                !
 ! D17   D(3,1,6,10)          -164.7898         estimate D2E/DX2                !
 ! D18   D(4,1,6,10)           -56.2369         estimate D2E/DX2                !
 ! D19   D(1,2,20,19)           59.6192         estimate D2E/DX2                !
 ! D20   D(1,3,13,12)           12.4599         estimate D2E/DX2                !
 ! D21   D(1,4,15,16)         -129.7098         estimate D2E/DX2                !
 ! D22   D(1,4,15,17)           -1.6276         estimate D2E/DX2                !
 ! D23   D(7,4,15,16)           -4.4162         estimate D2E/DX2                !
 ! D24   D(7,4,15,17)          123.6659         estimate D2E/DX2                !
 ! D25   D(18,4,15,16)         116.5737         estimate D2E/DX2                !
 ! D26   D(18,4,15,17)        -115.3441         estimate D2E/DX2                !
 ! D27   D(1,4,7,8)            174.2969         estimate D2E/DX2                !
 ! D28   D(1,4,7,9)            -67.4826         estimate D2E/DX2                !
 ! D29   D(1,4,7,22)            52.43           estimate D2E/DX2                !
 ! D30   D(5,4,7,8)             52.6342         estimate D2E/DX2                !
 ! D31   D(5,4,7,9)            170.8547         estimate D2E/DX2                !
 ! D32   D(5,4,7,22)           -69.2327         estimate D2E/DX2                !
 ! D33   D(18,4,7,8)           -67.6141         estimate D2E/DX2                !
 ! D34   D(18,4,7,9)            50.6064         estimate D2E/DX2                !
 ! D35   D(18,4,7,22)          170.519          estimate D2E/DX2                !
 ! D36   D(1,4,18,12)           -2.9402         estimate D2E/DX2                !
 ! D37   D(5,4,18,12)          113.1957         estimate D2E/DX2                !
 ! D38   D(7,4,18,12)         -125.428          estimate D2E/DX2                !
 ! D39   D(1,6,10,11)          -94.4455         estimate D2E/DX2                !
 ! D40   D(1,6,10,22)           27.1293         estimate D2E/DX2                !
 ! D41   D(1,6,10,24)          143.0688         estimate D2E/DX2                !
 ! D42   D(4,7,22,10)         -106.49           estimate D2E/DX2                !
 ! D43   D(4,7,22,23)           11.35           estimate D2E/DX2                !
 ! D44   D(4,7,22,25)          131.35           estimate D2E/DX2                !
 ! D45   D(8,7,22,10)          132.7575         estimate D2E/DX2                !
 ! D46   D(8,7,22,23)         -109.4025         estimate D2E/DX2                !
 ! D47   D(8,7,22,25)           10.5975         estimate D2E/DX2                !
 ! D48   D(9,7,22,10)           12.7315         estimate D2E/DX2                !
 ! D49   D(9,7,22,23)          130.5715         estimate D2E/DX2                !
 ! D50   D(9,7,22,25)         -109.4285         estimate D2E/DX2                !
 ! D51   D(6,10,22,7)           45.1683         estimate D2E/DX2                !
 ! D52   D(6,10,22,23)         -74.8354         estimate D2E/DX2                !
 ! D53   D(6,10,22,25)         167.5401         estimate D2E/DX2                !
 ! D54   D(11,10,22,7)         177.3645         estimate D2E/DX2                !
 ! D55   D(11,10,22,23)         57.3608         estimate D2E/DX2                !
 ! D56   D(11,10,22,25)        -60.2636         estimate D2E/DX2                !
 ! D57   D(24,10,22,7)         -65.8126         estimate D2E/DX2                !
 ! D58   D(24,10,22,23)        174.1837         estimate D2E/DX2                !
 ! D59   D(24,10,22,25)         56.5593         estimate D2E/DX2                !
 ! D60   D(14,12,13,3)        -141.2846         estimate D2E/DX2                !
 ! D61   D(18,12,13,3)          -4.4285         estimate D2E/DX2                !
 ! D62   D(13,12,18,4)          -0.5874         estimate D2E/DX2                !
 ! D63   D(14,12,18,4)         109.9809         estimate D2E/DX2                !
 ! D64   D(5,15,17,19)         -11.6292         estimate D2E/DX2                !
 ! D65   D(16,15,17,19)        128.3966         estimate D2E/DX2                !
 ! D66   D(15,17,19,20)          2.1425         estimate D2E/DX2                !
 ! D67   D(15,17,19,21)        115.5055         estimate D2E/DX2                !
 ! D68   D(17,19,20,2)         -10.076          estimate D2E/DX2                !
 ! D69   D(21,19,20,2)        -135.4967         estimate D2E/DX2                !
 --------------------------------------------------------------------------------
 Trust Radius=3.00D-01 FncErr=1.00D-07 GrdErr=1.00D-06
 Number of steps in this run= 150 maximum allowed number of steps= 150.
 GradGradGradGradGradGradGradGradGradGradGradGradGradGradGradGradGradGrad

 Leave Link  103 at Sat Aug  2 15:02:14 2008, MaxMem=  536870912 cpu:       0.3
 (Enter /usr/local/Chem-Apps/g03_d01/g03/l202.exe)
                          Input orientation:                          
 ---------------------------------------------------------------------
 Center     Atomic     Atomic              Coordinates (Angstroms)
 Number     Number      Type              X           Y           Z
 ---------------------------------------------------------------------
    1         15             0       -2.394810   -0.616588   -0.622526
    2          8             0       -2.462546    0.587533   -1.546542
    3          8             0       -3.585474   -1.416226   -0.126612
    4          7             0       -1.512660    0.050710    0.938897
    5          1             0       -1.697309    1.078250    1.011051
    6         16             0       -0.723779   -1.868684   -1.136314
    7          6             0       -0.043752   -0.215750    0.934700
    8          1             0        0.407103    0.280180    1.802154
    9          1             0        0.108383   -1.297226    1.024204
   10          6             0        0.987985   -0.832289   -1.320922
   11          1             0        1.397154   -0.434125   -2.252510
   12          8             0       -3.186817   -1.529318    2.565376
   13          1             0       -3.550089   -1.709951    1.668744
   14          1             0       -3.147127   -2.377143    3.020727
   15          8             0       -2.043788    2.775938    1.201187
   16          1             0       -1.437761    3.511378    1.340584
   17          1             0       -2.602781    3.020620    0.418943
   18          1             0       -1.969706   -0.423227    1.739891
   19          8             0       -3.442354    3.054885   -1.066921
   20          1             0       -3.188021    2.149776   -1.368721
   21          1             0       -4.405209    3.082059   -1.098407
   22          6             0        0.599814    0.284016   -0.372074
   23          1             0       -0.102752    0.887899   -0.907449
   24          1             0        1.767824   -1.453219   -0.932081
   25         53             0        2.303698    1.425732    0.078772
 ---------------------------------------------------------------------
                    Distance matrix (angstroms):
                    1          2          3          4          5
     1  P    0.000000
     2  O    1.519309   0.000000
     3  O    1.517575   2.700411   0.000000
     4  N    1.913509   2.714382   2.753864   0.000000
     5  H    2.455108   2.714346   3.328942   1.046489   0.000000
     6  S    2.150364   3.037203   3.068145   2.934776   3.774037
     7  C    2.848350   3.557020   3.887328   1.492886   2.101075
     8  H    3.812346   4.420760   4.747484   2.117394   2.385647
     9  H    3.072615   4.095208   3.870803   2.109974   2.983887
    10  C    3.460865   3.738043   4.762761   3.484207   4.037210
    11  H    4.131481   4.054561   5.505502   4.345937   4.744873
    12  O    3.409262   4.681185   2.723695   2.818639   3.381416
    13  H    2.789271   4.098688   1.819569   2.789932   3.411659
    14  H    4.115681   5.487978   3.319827   3.591653   4.252118
    15  O    3.867606   3.537582   4.659837   2.788864   1.743085
    16  H    4.670101   4.234920   5.571949   3.484707   2.469022
    17  H    3.789088   3.130928   4.576999   3.206101   2.223347
    18  H    2.408135   3.473495   2.660937   1.036870   1.691106
    19  O    3.843768   2.697756   4.571159   4.095374   3.357117
    20  H    2.973005   1.731629   3.796995   3.540906   3.005612
    21  H    4.236526   3.193341   4.674497   4.659026   3.974643
    22  C    3.137130   3.293865   4.524125   2.497122   2.796536
    23  H    2.756482   2.463186   4.248299   2.469356   2.501897
    24  H    4.257147   4.736905   5.413682   4.064965   4.710759
    25  I    5.170964   5.105028   6.542267   4.146696   4.122856
                    6          7          8          9         10
     6  S    0.000000
     7  C    2.735640   0.000000
     8  H    3.811968   1.096218   0.000000
     9  H    2.384721   1.095786   1.783998   0.000000
    10  C    2.009560   2.555862   3.365801   2.547446   0.000000
    11  H    2.793244   3.504598   4.234470   3.625290   1.092617
    12  O    4.459174   3.776695   4.095491   3.645192   5.746141
    13  H    3.985169   3.881476   4.431454   3.737672   5.504772
    14  H    4.838609   4.319035   4.602047   3.968712   6.191578
    15  O    5.364592   3.608512   3.549202   4.610187   5.345277
    16  H    5.965724   3.999936   3.749295   5.060961   5.642278
    17  H    5.463952   4.157971   4.299150   5.134252   5.546678
    18  H    3.451700   2.097779   2.479492   2.365277   4.275961
    19  O    5.624678   5.123869   5.545169   5.993447   5.899368
    20  H    4.719589   4.559374   5.145363   5.336121   5.131669
    21  H    6.169621   5.833642   6.278704   6.637479   6.667697
    22  C    2.640091   1.540000   2.182755   2.165969   1.515628
    23  H    2.834925   2.148263   2.823335   2.924146   2.078392
    24  H    2.534247   2.880627   3.511734   2.570045   1.070000
    25  I    4.636295   2.989582   2.807028   3.623224   2.964609
                   11         12         13         14         15
    11  H    0.000000
    12  O    6.739753   0.000000
    13  H    6.440434   0.984146   0.000000
    14  H    7.227229   0.963186   1.560571   0.000000
    15  O    5.837175   4.658622   4.755076   5.575153   0.000000
    16  H    6.042687   5.474297   5.641976   6.357633   0.963106
    17  H    5.922112   5.064603   4.983743   6.016763   0.992093
    18  H    5.222560   1.840169   2.039199   2.616228   3.245050
    19  O    6.082734   5.854383   5.495374   6.804627   2.679200
    20  H    5.336803   5.386358   4.924914   6.305705   2.881974
    21  H    6.882073   6.014365   5.599260   6.953627   3.310310
    22  C    2.165069   5.123999   5.036123   5.712480   3.958971
    23  H    2.409701   5.235924   5.026900   5.946367   3.432005
    24  H    1.708649   6.065185   5.925403   6.374565   6.079884
    25  I    3.117013   6.712770   6.828422   7.268318   4.688657
                   16         17         18         19         20
    16  H    0.000000
    17  H    1.564461   0.000000
    18  H    3.990430   3.742428   0.000000
    19  O    3.165890   1.707000   4.705757   0.000000
    20  H    3.501100   2.072828   4.215223   0.987416   0.000000
    21  H    3.865067   2.356878   5.125879   0.963753   1.556845
    22  C    4.183392   4.286178   3.400444   4.949712   4.338440
    23  H    3.703855   3.543721   3.494707   3.984244   3.365114
    24  H    6.331509   6.398648   4.708445   6.891092   6.142689
    25  I    4.465490   5.170389   4.943678   6.081436   5.725247
                   21         22         23         24         25
    21  H    0.000000
    22  C    5.779867   0.000000
    23  H    4.833419   1.070000   0.000000
    24  H    7.661772   2.166989   2.996748   0.000000
    25  I    7.009893   2.100000   2.655730   3.097959   0.000000
 Stoichiometry    C3H13INO5PS
 Framework group  C1[X(C3H13INO5PS)]
 Deg. of freedom    69
 Full point group                 C1
 Largest Abelian subgroup         C1      NOp   1
 Largest concise Abelian subgroup C1      NOp   1
                         Standard orientation:                         
 ---------------------------------------------------------------------
 Center     Atomic     Atomic              Coordinates (Angstroms)
 Number     Number      Type              X           Y           Z
 ---------------------------------------------------------------------
    1         15             0       -2.209985   -0.425493   -0.586380
    2          8             0       -1.893750    0.661855   -1.599281
    3          8             0       -3.595783   -0.789088   -0.085986
    4          7             0       -1.199697    0.077326    0.958938
    5          1             0       -1.068161    1.115440    0.946369
    6         16             0       -0.982902   -2.157424   -0.930983
    7          6             0        0.120824   -0.614324    1.039894
    8          1             0        0.682351   -0.204235    1.887366
    9          1             0       -0.061199   -1.680427    1.216069
   10          6             0        0.964680   -1.697893   -1.115614
   11          1             0        1.493382   -1.519677   -2.055042
   12          8             0       -3.304044   -0.789009    2.622040
   13          1             0       -3.686641   -0.927879    1.726006
   14          1             0       -3.530394   -1.568654    3.140352
   15          8             0       -0.891751    2.848909    0.994419
   16          1             0       -0.095531    3.379214    1.105699
   17          1             0       -1.335353    3.182408    0.172079
   18          1             0       -1.794202   -0.169648    1.771751
   19          8             0       -2.095562    3.340301   -1.348118
   20          1             0       -2.119194    2.378501   -1.570317
   21          1             0       -3.004819    3.650558   -1.424351
   22          6             0        0.911155   -0.440950   -0.270418
   23          1             0        0.433710    0.297653   -0.879854
   24          1             0        1.513635   -2.488070   -0.647460
   25         53             0        2.870069    0.174528    0.169857
 ---------------------------------------------------------------------
 Rotational constants (GHZ):      0.5592810      0.2361058      0.2088363
 Leave Link  202 at Sat Aug  2 15:02:14 2008, MaxMem=  536870912 cpu:       0.6
 (Enter /usr/local/Chem-Apps/g03_d01/g03/l301.exe)
 General basis read from cards:  (5D, 7F)
 Centers:   7 10 22  5  8  9 11 13 14 16 17 18 20 21 23 24  4  2  3 12
 Centers:  15 19  1  6
 aug-cc-pVDZ
 ****
 Centers:  25
 S 1 1.00
     Exponent=  6.8030000000D-01 Coefficients=  1.0000000000D+00
 S 1 1.00
     Exponent=  5.2080000000D-01 Coefficients=  1.0000000000D+00
 S 1 1.00
     Exponent=  1.1430000000D-01 Coefficients=  1.0000000000D+00
 P 1 1.00
     Exponent=  1.1250000000D+00 Coefficients=  1.0000000000D+00
 P 1 1.00
     Exponent=  3.5080000000D-01 Coefficients=  1.0000000000D+00
 P 1 1.00
     Exponent=  1.1660000000D-01 Coefficients=  1.0000000000D+00
 D 1 1.00
     Exponent=  3.9502000000D+00 Coefficients=  1.0000000000D+00
 D 1 1.00
     Exponent=  2.5742000000D+00 Coefficients=  1.0000000000D+00
 D 1 1.00
     Exponent=  1.3071000000D+00 Coefficients=  1.0000000000D+00
 D 1 1.00
     Exponent=  5.1160000000D-01 Coefficients=  1.0000000000D+00
 ****
 ===================================================================================================================================
 Pseudopotential Parameters 
 ===================================================================================================================================
  Center     Atomic      Valence      Angular      Power                                                       Coordinates
  Number     Number     Electrons     Momentum     of R      Exponent        Coefficient                X           Y           Z
 ===================================================================================================================================
    1         15                                                                                   -4.176266 -0.804066 -1.108098
                                   No pseudopotential on this center.
    2          8                                                                                   -3.578668  1.250725 -3.022204
                                   No pseudopotential on this center.
    3          8                                                                                   -6.795046 -1.491160 -0.162489
                                   No pseudopotential on this center.
    4          7                                                                                   -2.267098  0.146125  1.812130
                                   No pseudopotential on this center.
    5          1                                                                                   -2.018532  2.107876  1.788379
                                   No pseudopotential on this center.
    6         16                                                                                   -1.857415 -4.076940 -1.759303
                                   No pseudopotential on this center.
    7          6                                                                                    0.228325 -1.160904  1.965116
                                   No pseudopotential on this center.
    8          1                                                                                    1.289456 -0.385949  3.566605
                                   No pseudopotential on this center.
    9          1                                                                                   -0.115650 -3.175547  2.298038
                                   No pseudopotential on this center.
   10          6                                                                                    1.822981 -3.208553 -2.108206
                                   No pseudopotential on this center.
   11          1                                                                                    2.822084 -2.871774 -3.883466
                                   No pseudopotential on this center.
   12          8                                                                                   -6.243738 -1.491012  4.954938
                                   No pseudopotential on this center.
   13          1                                                                                   -6.966742 -1.753437  3.261678
                                   No pseudopotential on this center.
   14          1                                                                                   -6.671478 -2.964326  5.934405
                                   No pseudopotential on this center.
   15          8                                                                                   -1.685165  5.383657  1.879180
                                   No pseudopotential on this center.
   16          1                                                                                   -0.180528  6.385789  2.089469
                                   No pseudopotential on this center.
   17          1                                                                                   -2.523451  6.013879  0.325182
                                   No pseudopotential on this center.
   18          1                                                                                   -3.390551 -0.320588  3.348125
                                   No pseudopotential on this center.
   19          8                                                                                   -3.960038  6.312255 -2.547575
                                   No pseudopotential on this center.
   20          1                                                                                   -4.004697  4.494716 -2.967470
                                   No pseudopotential on this center.
   21          1                                                                                   -5.678286  6.898556 -2.691634
                                   No pseudopotential on this center.
   22          6                                                                                    1.721833 -0.833275 -0.511016
                                   No pseudopotential on this center.
   23          1                                                                                    0.819593  0.562482 -1.662684
                                   No pseudopotential on this center.
   24          1                                                                                    2.860356 -4.701771 -1.223522
                                   No pseudopotential on this center.
   25         53           17                                                                       5.423644  0.329810  0.320984
                                      F and up 
                                                     2        2.0065999       -2.60678697
                                                     2        5.4120002      -15.30154037
                                                     2       20.8878994      -73.32185364
                                                     1       63.8210983      -23.43061638
                                      S - F
                                                     2        1.5301000     -144.29801941
                                                     2        1.8566001      252.49822998
                                                     2        2.5843000     -200.15640259
                                                     2        3.7542000       85.98131561
                                                     1        1.1387000       32.24239349
                                                     0       12.4701004        6.45168209
                                      P - F
                                                     2        0.9111000       32.43734360
                                                     2        1.0657999     -101.57602692
                                                     2        1.3899000      169.25859070
                                                     2        1.7958000     -105.27653503
                                                     1        2.5479000       12.12060356
                                                     0        1.1725000        6.45733500
                                      D - F
                                                     2        0.8653000        3.41730189
                                                     2        0.8996000       -3.97894001
                                                     2        4.5872002      -37.31042862
                                                     2        5.5282001       77.44996643
                                                     1       22.2080002       18.01509857
                                                     0       19.1401005        6.86909294
 ===================================================================================================================================
 There are   410 symmetry adapted basis functions of A   symmetry.
 Integral buffers will be    131072 words long.
 Raffenetti 2 integral format.
 Two-electron integral symmetry is turned on.
   410 basis functions,   732 primitive gaussians,   436 cartesian basis functions
    63 alpha electrons       63 beta electrons
       nuclear repulsion energy      1187.7950386267 Hartrees.
 IExCor= 402 DFT=T Ex=B+HF Corr=LYP ExCW=0 ScaHFX=  0.200000
 ScaDFX=  0.800000  0.720000  1.000000  0.810000
 IRadAn=      5 IRanWt=     -1 IRanGd=            0 ICorTp=0
 NAtoms=   25 NActive=   25 NUniq=   25 SFac= 7.50D-01 NAtFMM=   80 NAOKFM=F Big=F
 Leave Link  301 at Sat Aug  2 15:02:15 2008, MaxMem=  536870912 cpu:       0.6
 (Enter /usr/local/Chem-Apps/g03_d01/g03/l302.exe)
 NPDir=0 NMtPBC=     1 NCelOv=     1 NCel=       1 NClECP=     1 NCelD=      1
         NCelK=      1 NCelE2=     1 NClLst=     1 CellRange=     0.0.
 One-electron integrals computed using PRISM.
   1 Symmetry operations used in ECPInt.
 ECPInt:  NShTT=   15931 NPrTT=   80121 LenC2=   15576 LenP2D=   53499.
 LDataN:  DoStor=F MaxTD1= 5 Len=  102
 LDataN:  DoStor=T MaxTD1= 5 Len=  102
 NBasis=   410 RedAO= T  NBF=   410
 NBsUse=   410 1.00D-06 NBFU=   410
 Precomputing XC quadrature grid using
 IXCGrd= 2 IRadAn=           5 IRanWt=          -1 IRanGd=           0.
 Defaulting to unpruned grid for atomic number  53.
 NRdTot=    2145 NPtTot=      604470 NUsed=      619586 NTot=      619618
 NSgBfM=   435   435   435   435.
 Leave Link  302 at Sat Aug  2 15:02:16 2008, MaxMem=  536870912 cpu:      25.2
 (Enter /usr/local/Chem-Apps/g03_d01/g03/l303.exe)
 DipDrv:  MaxL=1.
 Leave Link  303 at Sat Aug  2 15:02:17 2008, MaxMem=  536870912 cpu:       1.1
 (Enter /usr/local/Chem-Apps/g03_d01/g03/l401.exe)
 Harris functional with IExCor=  402 diagonalized for initial guess.
 ExpMin= 2.97D-02 ExpMax= 1.11D+05 ExpMxC= 3.24D+03 IAcc=3 IRadAn=         5 AccDes= 0.00D+00
 HarFok:  IExCor= 402 AccDes= 0.00D+00 IRadAn=         5 IDoV=1
 ScaDFX=  1.000000  1.000000  1.000000  1.000000
 Defaulting to unpruned grid for atomic number  53.
 Defaulting to unpruned grid for atomic number  53.
 Defaulting to unpruned grid for atomic number  53.
 Defaulting to unpruned grid for atomic number  53.
 Defaulting to unpruned grid for atomic number  53.
 Defaulting to unpruned grid for atomic number  53.
 Defaulting to unpruned grid for atomic number  53.
 Defaulting to unpruned grid for atomic number  53.
 Defaulting to unpruned grid for atomic number  53.
 Defaulting to unpruned grid for atomic number  53.
 Defaulting to unpruned grid for atomic number  53.
 Defaulting to unpruned grid for atomic number  53.
 Defaulting to unpruned grid for atomic number  53.
 Defaulting to unpruned grid for atomic number  53.
 Defaulting to unpruned grid for atomic number  53.
 Defaulting to unpruned grid for atomic number  53.
 Harris En=  1652.53617298662    
 Initial guess orbital symmetries:
       Occupied  (A) (A) (A) (A) (A) (A) (A) (A) (A) (A) (A) (A)
                 (A) (A) (A) (A) (A) (A) (A) (A) (A) (A) (A) (A)
                 (A) (A) (A) (A) (A) (A) (A) (A) (A) (A) (A) (A)
                 (A) (A) (A) (A) (A) (A) (A) (A) (A) (A) (A) (A)
                 (A) (A) (A) (A) (A) (A) (A) (A) (A) (A) (A) (A)
                 (A) (A) (A)
       Virtual   (A) (A) (A) (A) (A) (A) (A) (A) (A) (A) (A) (A)
                 (A) (A) (A) (A) (A) (A) (A) (A) (A) (A) (A) (A)
                 (A) (A) (A) (A) (A) (A) (A) (A) (A) (A) (A) (A)
                 (A) (A) (A) (A) (A) (A) (A) (A) (A) (A) (A) (A)
                 (A) (A) (A) (A) (A) (A) (A) (A) (A) (A) (A) (A)
                 (A) (A) (A) (A) (A) (A) (A) (A) (A) (A) (A) (A)
                 (A) (A) (A) (A) (A) (A) (A) (A) (A) (A) (A) (A)
                 (A) (A) (A) (A) (A) (A) (A) (A) (A) (A) (A) (A)
                 (A) (A) (A) (A) (A) (A) (A) (A) (A) (A) (A) (A)
                 (A) (A) (A) (A) (A) (A) (A) (A) (A) (A) (A) (A)
                 (A) (A) (A) (A) (A) (A) (A) (A) (A) (A) (A) (A)
                 (A) (A) (A) (A) (A) (A) (A) (A) (A) (A) (A) (A)
                 (A) (A) (A) (A) (A) (A) (A) (A) (A) (A) (A) (A)
                 (A) (A) (A) (A) (A) (A) (A) (A) (A) (A) (A) (A)
                 (A) (A) (A) (A) (A) (A) (A) (A) (A) (A) (A) (A)
                 (A) (A) (A) (A) (A) (A) (A) (A) (A) (A) (A) (A)
                 (A) (A) (A) (A) (A) (A) (A) (A) (A) (A) (A) (A)
                 (A) (A) (A) (A) (A) (A) (A) (A) (A) (A) (A) (A)
                 (A) (A) (A) (A) (A) (A) (A) (A) (A) (A) (A) (A)
                 (A) (A) (A) (A) (A) (A) (A) (A) (A) (A) (A) (A)
                 (A) (A) (A) (A) (A) (A) (A) (A) (A) (A) (A) (A)
                 (A) (A) (A) (A) (A) (A) (A) (A) (A) (A) (A) (A)
                 (A) (A) (A) (A) (A) (A) (A) (A) (A) (A) (A) (A)
                 (A) (A) (A) (A) (A) (A) (A) (A) (A) (A) (A) (A)
                 (A) (A) (A) (A) (A) (A) (A) (A) (A) (A) (A) (A)
                 (A) (A) (A) (A) (A) (A) (A) (A) (A) (A) (A) (A)
                 (A) (A) (A) (A) (A) (A) (A) (A) (A) (A) (A) (A)
                 (A) (A) (A) (A) (A) (A) (A) (A) (A) (A) (A) (A)
                 (A) (A) (A) (A) (A) (A) (A) (A) (A) (A) (A)
 The electronic state of the initial guess is 1-A.
 Leave Link  401 at Sat Aug  2 15:02:21 2008, MaxMem=  536870912 cpu:      61.0
 (Enter /usr/local/Chem-Apps/g03_d01/g03/l502.exe)
 Closed shell SCF:
 Requested convergence on RMS density matrix=1.00D-08 within 128 cycles.
 Requested convergence on MAX density matrix=1.00D-06.
 Requested convergence on             energy=1.00D-06.
 No special actions if energy rises.
 Using DIIS extrapolation, IDIIS=  1040.
 Integral symmetry usage will be decided dynamically.
       619585 words used for storage of precomputed grid.
 IEnd=   1312041 IEndB=   1312041 NGot= 536870912 MDV= 535766044
 LenX= 535766044
 Fock matrices will be formed incrementally for  20 cycles.

 Cycle   1  Pass 1  IDiag  1:
 Petite list used in FoFDir.
 MinBra= 0 MaxBra= 2 Meth= 1.
 IRaf=       0 NMat=   1 IRICut=       1 DoRegI=T DoRafI=F ISym2E= 1 JSym2E=1.
 Defaulting to unpruned grid for atomic number  53.
 Defaulting to unpruned grid for atomic number  53.
 Defaulting to unpruned grid for atomic number  53.
 Defaulting to unpruned grid for atomic number  53.
 Defaulting to unpruned grid for atomic number  53.
 Defaulting to unpruned grid for atomic number  53.
 Defaulting to unpruned grid for atomic number  53.
 Defaulting to unpruned grid for atomic number  53.
 Defaulting to unpruned grid for atomic number  53.
 Defaulting to unpruned grid for atomic number  53.
 Defaulting to unpruned grid for atomic number  53.
 Defaulting to unpruned grid for atomic number  53.
 Defaulting to unpruned grid for atomic number  53.
 Defaulting to unpruned grid for atomic number  53.
 Defaulting to unpruned grid for atomic number  53.
 Defaulting to unpruned grid for atomic number  53.
 E= -1389.01036086153    
 DIIS: error= 8.71D-01 at cycle   1 NSaved=   1.
 NSaved= 1 IEnMin= 1 EnMin= -1389.01036086153     IErMin= 1 ErrMin= 8.71D-01
 ErrMax= 8.71D-01 EMaxC= 1.00D-01 BMatC= 8.23D+01 BMatP= 8.23D+01
 IDIUse=3 WtCom= 0.00D+00 WtEn= 1.00D+00
 Coeff-Com:  0.100D+01
 Coeff-En:   0.100D+01
 Coeff:      0.100D+01
 Gap=     0.202 Goal=   None    Shift=    0.000
 GapD=    0.202 DampG=1.000 DampE=0.250 DampFc=0.2500 IDamp=-1.
 Damping current iteration by 2.50D-01
 RMSDP=3.38D-02 MaxDP=4.95D+00              OVMax= 5.22D-01

 Cycle   2  Pass 1  IDiag  1:
 RMSU=  7.95D-03    CP:  9.26D-01
 E= -1393.54057669170     Delta-E=       -4.530215830172 Rises=F Damp=T
 DIIS: error= 6.25D-01 at cycle   2 NSaved=   2.
 NSaved= 2 IEnMin= 2 EnMin= -1393.54057669170     IErMin= 2 ErrMin= 6.25D-01
 ErrMax= 6.25D-01 EMaxC= 1.00D-01 BMatC= 3.92D+01 BMatP= 8.23D+01
 IDIUse=3 WtCom= 0.00D+00 WtEn= 1.00D+00
 Coeff-Com: -0.213D+01 0.313D+01
 Coeff-En:   0.000D+00 0.100D+01
 Coeff:      0.000D+00 0.100D+01
 Gap=     0.228 Goal=   None    Shift=    0.000
 RMSDP=1.57D-02 MaxDP=1.89D+00 DE=-4.53D+00 OVMax= 1.74D-01

 Cycle   3  Pass 1  IDiag  1:
 RMSU=  7.92D-03    CP:  7.68D-01  2.53D+00
 E= -1403.34470879047     Delta-E=       -9.804132098774 Rises=F Damp=F
 DIIS: error= 1.90D-01 at cycle   3 NSaved=   3.
 NSaved= 3 IEnMin= 3 EnMin= -1403.34470879047     IErMin= 3 ErrMin= 1.90D-01
 ErrMax= 1.90D-01 EMaxC= 1.00D-01 BMatC= 2.47D+00 BMatP= 3.92D+01
 IDIUse=3 WtCom= 0.00D+00 WtEn= 1.00D+00
 Coeff-Com:  0.114D+00 0.403D-02 0.882D+00
 Coeff-En:   0.000D+00 0.000D+00 0.100D+01
 Coeff:      0.000D+00 0.000D+00 0.100D+01
 Gap=     0.199 Goal=   None    Shift=    0.000
 RMSDP=2.12D-02 MaxDP=3.34D+00 DE=-9.80D+00 OVMax= 1.49D-01

 Cycle   4  Pass 1  IDiag  1:
 RMSU=  8.62D-03    CP:  9.40D-01  2.44D-01  9.32D-01
 E= -1403.75287669820     Delta-E=       -0.408167907728 Rises=F Damp=F
 DIIS: error= 7.55D-02 at cycle   4 NSaved=   4.
 NSaved= 4 IEnMin= 4 EnMin= -1403.75287669820     IErMin= 4 ErrMin= 7.55D-02
 ErrMax= 7.55D-02 EMaxC= 1.00D-01 BMatC= 8.31D-01 BMatP= 2.47D+00
 IDIUse=3 WtCom= 2.45D-01 WtEn= 7.55D-01
 Coeff-Com: -0.658D+00 0.916D+00 0.907D-01 0.651D+00
 Coeff-En:   0.000D+00 0.000D+00 0.299D+00 0.701D+00
 Coeff:     -0.161D+00 0.224D+00 0.248D+00 0.688D+00
 Gap=     0.263 Goal=   None    Shift=    0.000
 RMSDP=1.24D-02 MaxDP=2.17D+00 DE=-4.08D-01 OVMax= 1.22D-01

 Cycle   5  Pass 1  IDiag  1:
 RMSU=  3.26D-03    CP:  8.11D-01  1.49D+00  8.04D-01  4.78D-01
 E= -1404.07370245066     Delta-E=       -0.320825752463 Rises=F Damp=F
 DIIS: error= 1.03D-02 at cycle   5 NSaved=   5.
 NSaved= 5 IEnMin= 5 EnMin= -1404.07370245066     IErMin= 5 ErrMin= 1.03D-02
 ErrMax= 1.03D-02 EMaxC= 1.00D-01 BMatC= 1.71D-01 BMatP= 8.31D-01
 IDIUse=3 WtCom= 8.97D-01 WtEn= 1.03D-01
 Coeff-Com: -0.153D+00 0.209D+00 0.132D+00 0.438D+00 0.374D+00
 Coeff-En:   0.000D+00 0.000D+00 0.000D+00 0.233D+00 0.767D+00
 Coeff:     -0.137D+00 0.187D+00 0.119D+00 0.417D+00 0.415D+00
 Gap=     0.209 Goal=   None    Shift=    0.000
 RMSDP=2.69D-03 MaxDP=1.84D-01 DE=-3.21D-01 OVMax= 6.59D-02

 Cycle   6  Pass 1  IDiag  1:
 RMSU=  9.67D-04    CP:  8.21D-01  1.39D+00  9.84D-01  4.26D-01  4.48D-01
 E= -1404.21607324872     Delta-E=       -0.142370798059 Rises=F Damp=F
 DIIS: error= 1.65D-03 at cycle   6 NSaved=   6.
 NSaved= 6 IEnMin= 6 EnMin= -1404.21607324872     IErMin= 6 ErrMin= 1.65D-03
 ErrMax= 1.65D-03 EMaxC= 1.00D-01 BMatC= 6.51D-03 BMatP= 1.71D-01
 IDIUse=3 WtCom= 9.84D-01 WtEn= 1.65D-02
 Coeff-Com: -0.137D+00 0.188D+00 0.327D-01 0.189D+00 0.180D+00 0.547D+00
 Coeff-En:   0.000D+00 0.000D+00 0.000D+00 0.000D+00 0.000D+00 0.100D+01
 Coeff:     -0.135D+00 0.185D+00 0.321D-01 0.186D+00 0.177D+00 0.555D+00
 Gap=     0.204 Goal=   None    Shift=    0.000
 RMSDP=8.06D-04 MaxDP=1.05D-01 DE=-1.42D-01 OVMax= 1.54D-02

 Cycle   7  Pass 1  IDiag  1:
 RMSU=  3.95D-04    CP:  8.28D-01  1.34D+00  1.01D+00  4.44D-01  4.66D-01
                    CP:  5.46D-01
 E= -1404.22147774823     Delta-E=       -0.005404499509 Rises=F Damp=F
 DIIS: error= 2.45D-03 at cycle   7 NSaved=   7.
 NSaved= 7 IEnMin= 7 EnMin= -1404.22147774823     IErMin= 6 ErrMin= 1.65D-03
 ErrMax= 2.45D-03 EMaxC= 1.00D-01 BMatC= 9.57D-04 BMatP= 6.51D-03
 IDIUse=3 WtCom= 9.84D-01 WtEn= 1.65D-02
 Coeff-Com: -0.828D-01 0.114D+00 0.853D-02 0.710D-01 0.560D-01 0.318D+00
 Coeff-Com:  0.516D+00
 Coeff-En:   0.000D+00 0.000D+00 0.000D+00 0.000D+00 0.000D+00 0.000D+00
 Coeff-En:   0.100D+01
 Coeff:     -0.814D-01 0.112D+00 0.839D-02 0.699D-01 0.551D-01 0.313D+00
 Coeff:      0.523D+00
 Gap=     0.202 Goal=   None    Shift=    0.000
 RMSDP=2.35D-04 MaxDP=2.92D-02 DE=-5.40D-03 OVMax= 5.10D-03

 Cycle   8  Pass 1  IDiag  1:
 RMSU=  8.45D-05    CP:  8.27D-01  1.35D+00  1.01D+00  4.35D-01  4.40D-01
                    CP:  6.50D-01  9.72D-01
 E= -1404.22202227973     Delta-E=       -0.000544531497 Rises=F Damp=F
 DIIS: error= 1.42D-03 at cycle   8 NSaved=   8.
 NSaved= 8 IEnMin= 8 EnMin= -1404.22202227973     IErMin= 8 ErrMin= 1.42D-03
 ErrMax= 1.42D-03 EMaxC= 1.00D-01 BMatC= 2.01D-04 BMatP= 9.57D-04
 IDIUse=3 WtCom= 9.86D-01 WtEn= 1.42D-02
 Coeff-Com: -0.246D-01 0.336D-01 0.249D-02 0.679D-02-0.211D-02 0.781D-01
 Coeff-Com:  0.260D+00 0.646D+00
 Coeff-En:   0.000D+00 0.000D+00 0.000D+00 0.000D+00 0.000D+00 0.000D+00
 Coeff-En:   0.000D+00 0.100D+01
 Coeff:     -0.242D-01 0.331D-01 0.245D-02 0.669D-02-0.208D-02 0.770D-01
 Coeff:      0.256D+00 0.651D+00
 Gap=     0.202 Goal=   None    Shift=    0.000
 RMSDP=2.01D-04 MaxDP=3.75D-02 DE=-5.45D-04 OVMax= 1.66D-03

 Cycle   9  Pass 1  IDiag  1:
 RMSU=  3.25D-05    CP:  8.24D-01  1.37D+00  1.01D+00  4.27D-01  4.45D-01
                    CP:  6.73D-01  9.62D-01  8.02D-01
 E= -1404.22210816835     Delta-E=       -0.000085888626 Rises=F Damp=F
 DIIS: error= 3.57D-04 at cycle   9 NSaved=   9.
 NSaved= 9 IEnMin= 9 EnMin= -1404.22210816835     IErMin= 9 ErrMin= 3.57D-04
 ErrMax= 3.57D-04 EMaxC= 1.00D-01 BMatC= 1.67D-05 BMatP= 2.01D-04
 IDIUse=3 WtCom= 9.96D-01 WtEn= 3.57D-03
 Coeff-Com: -0.538D-02 0.720D-02 0.140D-02-0.207D-02-0.464D-02 0.169D-01
 Coeff-Com:  0.758D-01 0.300D+00 0.610D+00
 Coeff-En:   0.000D+00 0.000D+00 0.000D+00 0.000D+00 0.000D+00 0.000D+00
 Coeff-En:   0.000D+00 0.000D+00 0.100D+01
 Coeff:     -0.536D-02 0.717D-02 0.139D-02-0.206D-02-0.463D-02 0.169D-01
 Coeff:      0.755D-01 0.299D+00 0.612D+00
 Gap=     0.202 Goal=   None    Shift=    0.000
 RMSDP=4.10D-05 MaxDP=5.76D-03 DE=-8.59D-05 OVMax= 9.56D-04

 Cycle  10  Pass 1  IDiag  1:
 RMSU=  1.20D-05    CP:  8.24D-01  1.38D+00  1.01D+00  4.24D-01  4.42D-01
                    CP:  6.70D-01  9.87D-01  8.54D-01  1.00D+00
 E= -1404.22211253460     Delta-E=       -0.000004366248 Rises=F Damp=F
 DIIS: error= 7.63D-05 at cycle  10 NSaved=  10.
 NSaved=10 IEnMin=10 EnMin= -1404.22211253460     IErMin=10 ErrMin= 7.63D-05
 ErrMax= 7.63D-05 EMaxC= 1.00D-01 BMatC= 4.47D-06 BMatP= 1.67D-05
 IDIUse=1 WtCom= 1.00D+00 WtEn= 0.00D+00
 Coeff-Com:  0.197D-03-0.403D-03 0.734D-03-0.174D-02-0.182D-02 0.127D-02
 Coeff-Com:  0.222D-02 0.658D-01 0.469D+00 0.465D+00
 Coeff:      0.197D-03-0.403D-03 0.734D-03-0.174D-02-0.182D-02 0.127D-02
 Coeff:      0.222D-02 0.658D-01 0.469D+00 0.465D+00
 Gap=     0.202 Goal=   None    Shift=    0.000
 RMSDP=1.30D-05 MaxDP=1.24D-03 DE=-4.37D-06 OVMax= 4.50D-04

 Cycle  11  Pass 1  IDiag  1:
 RMSU=  5.16D-06    CP:  8.24D-01  1.38D+00  1.01D+00  4.24D-01  4.40D-01
                    CP:  6.67D-01  9.96D-01  8.74D-01  1.03D+00  7.88D-01
 E= -1404.22211567745     Delta-E=       -0.000003142848 Rises=F Damp=F
 DIIS: error= 6.81D-06 at cycle  11 NSaved=  11.
 NSaved=11 IEnMin=11 EnMin= -1404.22211567745     IErMin=11 ErrMin= 6.81D-06
 ErrMax= 6.81D-06 EMaxC= 1.00D-01 BMatC= 9.11D-08 BMatP= 4.47D-06
 IDIUse=1 WtCom= 1.00D+00 WtEn= 0.00D+00
 Coeff-Com: -0.117D-04-0.184D-04 0.168D-03-0.236D-03-0.380D-03 0.357D-03
 Coeff-Com: -0.432D-02 0.426D-03 0.151D+00 0.200D+00 0.653D+00
 Coeff:     -0.117D-04-0.184D-04 0.168D-03-0.236D-03-0.380D-03 0.357D-03
 Coeff:     -0.432D-02 0.426D-03 0.151D+00 0.200D+00 0.653D+00
 Gap=     0.202 Goal=   None    Shift=    0.000
 RMSDP=2.41D-06 MaxDP=1.96D-04 DE=-3.14D-06 OVMax= 6.95D-05

 Cycle  12  Pass 1  IDiag  1:
 RMSU=  1.63D-06    CP:  8.24D-01  1.38D+00  1.01D+00  4.24D-01  4.40D-01
                    CP:  6.68D-01  9.94D-01  8.73D-01  1.05D+00  7.78D-01
                    CP:  8.66D-01
 E= -1404.22211574922     Delta-E=       -0.000000071770 Rises=F Damp=F
 DIIS: error= 3.38D-06 at cycle  12 NSaved=  12.
 NSaved=12 IEnMin=12 EnMin= -1404.22211574922     IErMin=12 ErrMin= 3.38D-06
 ErrMax= 3.38D-06 EMaxC= 1.00D-01 BMatC= 1.50D-08 BMatP= 9.11D-08
 IDIUse=1 WtCom= 1.00D+00 WtEn= 0.00D+00
 Coeff-Com: -0.341D-04 0.395D-04 0.224D-04-0.282D-04-0.145D-03-0.111D-03
 Coeff-Com: -0.295D-02-0.511D-02 0.482D-01 0.756D-01 0.362D+00 0.523D+00
 Coeff:     -0.341D-04 0.395D-04 0.224D-04-0.282D-04-0.145D-03-0.111D-03
 Coeff:     -0.295D-02-0.511D-02 0.482D-01 0.756D-01 0.362D+00 0.523D+00
 Gap=     0.202 Goal=   None    Shift=    0.000
 RMSDP=1.47D-06 MaxDP=1.67D-04 DE=-7.18D-08 OVMax= 2.50D-05

 Cycle  13  Pass 1  IDiag  1:
 RMSU=  4.14D-07    CP:  8.24D-01  1.38D+00  1.01D+00  4.24D-01  4.40D-01
                    CP:  6.68D-01  9.93D-01  8.71D-01  1.05D+00  7.70D-01
                    CP:  8.18D-01  6.91D-01
 E= -1404.22211576405     Delta-E=       -0.000000014831 Rises=F Damp=F
 DIIS: error= 8.95D-07 at cycle  13 NSaved=  13.
 NSaved=13 IEnMin=13 EnMin= -1404.22211576405     IErMin=13 ErrMin= 8.95D-07
 ErrMax= 8.95D-07 EMaxC= 1.00D-01 BMatC= 4.93D-10 BMatP= 1.50D-08
 IDIUse=1 WtCom= 1.00D+00 WtEn= 0.00D+00
 Coeff-Com: -0.154D-04 0.201D-04-0.285D-06 0.101D-05-0.345D-04-0.118D-03
 Coeff-Com: -0.104D-02-0.207D-02 0.107D-01 0.191D-01 0.100D+00 0.198D+00
 Coeff-Com:  0.675D+00
 Coeff:     -0.154D-04 0.201D-04-0.285D-06 0.101D-05-0.345D-04-0.118D-03
 Coeff:     -0.104D-02-0.207D-02 0.107D-01 0.191D-01 0.100D+00 0.198D+00
 Coeff:      0.675D+00
 Gap=     0.202 Goal=   None    Shift=    0.000
 RMSDP=1.84D-07 MaxDP=2.24D-05 DE=-1.48D-08 OVMax= 3.94D-06

 Cycle  14  Pass 1  IDiag  1:
 RMSU=  9.16D-08    CP:  8.24D-01  1.38D+00  1.01D+00  4.24D-01  4.40D-01
                    CP:  6.68D-01  9.93D-01  8.72D-01  1.05D+00  7.74D-01
                    CP:  8.26D-01  6.75D-01  8.86D-01
 E= -1404.22211576444     Delta-E=       -0.000000000395 Rises=F Damp=F
 DIIS: error= 3.19D-07 at cycle  14 NSaved=  14.
 NSaved=14 IEnMin=14 EnMin= -1404.22211576444     IErMin=14 ErrMin= 3.19D-07
 ErrMax= 3.19D-07 EMaxC= 1.00D-01 BMatC= 5.82D-11 BMatP= 4.93D-10
 IDIUse=1 WtCom= 1.00D+00 WtEn= 0.00D+00
 Coeff-Com: -0.110D-05 0.146D-05-0.121D-05 0.101D-05-0.588D-05-0.738D-04
 Coeff-Com: -0.384D-03-0.788D-03 0.223D-02 0.463D-02 0.271D-01 0.628D-01
 Coeff-Com:  0.320D+00 0.584D+00
 Coeff:     -0.110D-05 0.146D-05-0.121D-05 0.101D-05-0.588D-05-0.738D-04
 Coeff:     -0.384D-03-0.788D-03 0.223D-02 0.463D-02 0.271D-01 0.628D-01
 Coeff:      0.320D+00 0.584D+00
 Gap=     0.202 Goal=   None    Shift=    0.000
 RMSDP=6.50D-08 MaxDP=9.64D-06 DE=-3.95D-10 OVMax= 1.15D-06

 Cycle  15  Pass 1  IDiag  1:
 RMSU=  2.62D-08    CP:  8.24D-01  1.38D+00  1.01D+00  4.24D-01  4.40D-01
                    CP:  6.68D-01  9.93D-01  8.72D-01  1.05D+00  7.74D-01
                    CP:  8.28D-01  6.93D-01  8.66D-01  9.48D-01
 E= -1404.22211576448     Delta-E=       -0.000000000036 Rises=F Damp=F
 DIIS: error= 6.21D-08 at cycle  15 NSaved=  15.
 NSaved=15 IEnMin=15 EnMin= -1404.22211576448     IErMin=15 ErrMin= 6.21D-08
 ErrMax= 6.21D-08 EMaxC= 1.00D-01 BMatC= 5.01D-12 BMatP= 5.82D-11
 IDIUse=1 WtCom= 1.00D+00 WtEn= 0.00D+00
 Coeff-Com:  0.181D-05-0.244D-05-0.477D-06-0.551D-06 0.349D-06-0.289D-04
 Coeff-Com: -0.929D-04-0.162D-03 0.116D-03 0.404D-03 0.349D-02 0.111D-01
 Coeff-Com:  0.866D-01 0.291D+00 0.607D+00
 Coeff:      0.181D-05-0.244D-05-0.477D-06-0.551D-06 0.349D-06-0.289D-04
 Coeff:     -0.929D-04-0.162D-03 0.116D-03 0.404D-03 0.349D-02 0.111D-01
 Coeff:      0.866D-01 0.291D+00 0.607D+00
 Gap=     0.202 Goal=   None    Shift=    0.000
 RMSDP=1.57D-08 MaxDP=1.63D-06 DE=-3.59D-11 OVMax= 5.13D-07

 Cycle  16  Pass 1  IDiag  1:
 RMSU=  8.13D-09    CP:  8.24D-01  1.38D+00  1.01D+00  4.24D-01  4.40D-01
                    CP:  6.68D-01  9.93D-01  8.72D-01  1.05D+00  7.74D-01
                    CP:  8.27D-01  6.92D-01  8.82D-01  9.17D-01  9.30D-01
 E= -1404.22211576449     Delta-E=       -0.000000000013 Rises=F Damp=F
 DIIS: error= 3.61D-08 at cycle  16 NSaved=  16.
 NSaved=16 IEnMin=16 EnMin= -1404.22211576449     IErMin=16 ErrMin= 3.61D-08
 ErrMax= 3.61D-08 EMaxC= 1.00D-01 BMatC= 2.52D-13 BMatP= 5.01D-12
 IDIUse=1 WtCom= 1.00D+00 WtEn= 0.00D+00
 Coeff-Com:  0.241D-06-0.312D-06-0.928D-07 0.103D-08 0.672D-06-0.322D-05
 Coeff-Com: -0.358D-05 0.140D-04-0.957D-04-0.174D-03-0.623D-03-0.154D-03
 Coeff-Com:  0.758D-02 0.553D-01 0.200D+00 0.739D+00
 Coeff:      0.241D-06-0.312D-06-0.928D-07 0.103D-08 0.672D-06-0.322D-05
 Coeff:     -0.358D-05 0.140D-04-0.957D-04-0.174D-03-0.623D-03-0.154D-03
 Coeff:      0.758D-02 0.553D-01 0.200D+00 0.739D+00
 Gap=     0.202 Goal=   None    Shift=    0.000
 RMSDP=7.32D-09 MaxDP=1.17D-06 DE=-1.32D-11 OVMax= 1.64D-07

 Cycle  17  Pass 1  IDiag  1:
 RMSU=  2.24D-09    CP:  8.24D-01  1.38D+00  1.01D+00  4.24D-01  4.40D-01
                    CP:  6.68D-01  9.93D-01  8.72D-01  1.05D+00  7.74D-01
                    CP:  8.28D-01  6.92D-01  8.81D-01  9.29D-01  9.05D-01
                    CP:  9.25D-01
 E= -1404.22211576450     Delta-E=       -0.000000000008 Rises=F Damp=F
 DIIS: error= 3.97D-09 at cycle  17 NSaved=  17.
 NSaved=17 IEnMin=17 EnMin= -1404.22211576450     IErMin=17 ErrMin= 3.97D-09
 ErrMax= 3.97D-09 EMaxC= 1.00D-01 BMatC= 3.47D-14 BMatP= 2.52D-13
 IDIUse=1 WtCom= 1.00D+00 WtEn= 0.00D+00
 Coeff-Com:  0.969D-07-0.125D-06-0.250D-07-0.145D-07 0.272D-06 0.285D-06
 Coeff-Com:  0.469D-05 0.203D-04-0.631D-04-0.131D-03-0.635D-03-0.974D-03
 Coeff-Com: -0.303D-02 0.470D-02 0.514D-01 0.367D+00 0.581D+00
 Coeff:      0.969D-07-0.125D-06-0.250D-07-0.145D-07 0.272D-06 0.285D-06
 Coeff:      0.469D-05 0.203D-04-0.631D-04-0.131D-03-0.635D-03-0.974D-03
 Coeff:     -0.303D-02 0.470D-02 0.514D-01 0.367D+00 0.581D+00
 Gap=     0.202 Goal=   None    Shift=    0.000
 RMSDP=2.00D-09 MaxDP=1.63D-07 DE=-8.19D-12 OVMax= 6.51D-08

 SCF Done:  E(RB+HF-LYP) =  -1404.22211576     A.U. after   17 cycles
             Convg  =    0.2003D-08             -V/T =  2.0325
             S**2   =   0.0000
 KE= 1.360013588679D+03 PE=-5.696523160066D+03 EE= 1.744492416996D+03
 Leave Link  502 at Sat Aug  2 15:07:17 2008, MaxMem=  536870912 cpu:    4464.6
 (Enter /usr/local/Chem-Apps/g03_d01/g03/l601.exe)
 Copying SCF densities to generalized density rwf, ISCF=0 IROHF=0.

 **********************************************************************

            Population analysis using the SCF density.

 **********************************************************************

 Orbital symmetries:
       Occupied  (A) (A) (A) (A) (A) (A) (A) (A) (A) (A) (A) (A)
                 (A) (A) (A) (A) (A) (A) (A) (A) (A) (A) (A) (A)
                 (A) (A) (A) (A) (A) (A) (A) (A) (A) (A) (A) (A)
                 (A) (A) (A) (A) (A) (A) (A) (A) (A) (A) (A) (A)
                 (A) (A) (A) (A) (A) (A) (A) (A) (A) (A) (A) (A)
                 (A) (A) (A)
       Virtual   (A) (A) (A) (A) (A) (A) (A) (A) (A) (A) (A) (A)
                 (A) (A) (A) (A) (A) (A) (A) (A) (A) (A) (A) (A)
                 (A) (A) (A) (A) (A) (A) (A) (A) (A) (A) (A) (A)
                 (A) (A) (A) (A) (A) (A) (A) (A) (A) (A) (A) (A)
                 (A) (A) (A) (A) (A) (A) (A) (A) (A) (A) (A) (A)
                 (A) (A) (A) (A) (A) (A) (A) (A) (A) (A) (A) (A)
                 (A) (A) (A) (A) (A) (A) (A) (A) (A) (A) (A) (A)
                 (A) (A) (A) (A) (A) (A) (A) (A) (A) (A) (A) (A)
                 (A) (A) (A) (A) (A) (A) (A) (A) (A) (A) (A) (A)
                 (A) (A) (A) (A) (A) (A) (A) (A) (A) (A) (A) (A)
                 (A) (A) (A) (A) (A) (A) (A) (A) (A) (A) (A) (A)
                 (A) (A) (A) (A) (A) (A) (A) (A) (A) (A) (A) (A)
                 (A) (A) (A) (A) (A) (A) (A) (A) (A) (A) (A) (A)
                 (A) (A) (A) (A) (A) (A) (A) (A) (A) (A) (A) (A)
                 (A) (A) (A) (A) (A) (A) (A) (A) (A) (A) (A) (A)
                 (A) (A) (A) (A) (A) (A) (A) (A) (A) (A) (A) (A)
                 (A) (A) (A) (A) (A) (A) (A) (A) (A) (A) (A) (A)
                 (A) (A) (A) (A) (A) (A) (A) (A) (A) (A) (A) (A)
                 (A) (A) (A) (A) (A) (A) (A) (A) (A) (A) (A) (A)
                 (A) (A) (A) (A) (A) (A) (A) (A) (A) (A) (A) (A)
                 (A) (A) (A) (A) (A) (A) (A) (A) (A) (A) (A) (A)
                 (A) (A) (A) (A) (A) (A) (A) (A) (A) (A) (A) (A)
                 (A) (A) (A) (A) (A) (A) (A) (A) (A) (A) (A) (A)
                 (A) (A) (A) (A) (A) (A) (A) (A) (A) (A) (A) (A)
                 (A) (A) (A) (A) (A) (A) (A) (A) (A) (A) (A) (A)
                 (A) (A) (A) (A) (A) (A) (A) (A) (A) (A) (A) (A)
                 (A) (A) (A) (A) (A) (A) (A) (A) (A) (A) (A) (A)
                 (A) (A) (A) (A) (A) (A) (A) (A) (A) (A) (A) (A)
                 (A) (A) (A) (A) (A) (A) (A) (A) (A) (A) (A)
 The electronic state is 1-A.
 Alpha  occ. eigenvalues --  -88.90025 -77.24145 -19.16368 -19.16185 -19.15384
 Alpha  occ. eigenvalues --  -19.14092 -19.13066 -14.41480 -10.26496 -10.26132
 Alpha  occ. eigenvalues --  -10.26092  -7.96032  -6.68975  -5.92463  -5.92058
 Alpha  occ. eigenvalues --   -5.91470  -4.85396  -4.85205  -4.85080  -2.15778
 Alpha  occ. eigenvalues --   -2.15385  -2.15351  -2.14351  -2.14350  -1.03464
 Alpha  occ. eigenvalues --   -1.02838  -1.01965  -1.01154  -0.97089  -0.96450
 Alpha  occ. eigenvalues --   -0.85687  -0.75653  -0.72112  -0.69142  -0.63261
 Alpha  occ. eigenvalues --   -0.58085  -0.56808  -0.55181  -0.54193  -0.53439
 Alpha  occ. eigenvalues --   -0.52772  -0.51033  -0.46291  -0.45507  -0.44388
 Alpha  occ. eigenvalues --   -0.43284  -0.41624  -0.41118  -0.40666  -0.39807
 Alpha  occ. eigenvalues --   -0.39770  -0.38352  -0.34124  -0.33410  -0.33110
 Alpha  occ. eigenvalues --   -0.32500  -0.32405  -0.31878  -0.30981  -0.29577
 Alpha  occ. eigenvalues --   -0.27463  -0.27255  -0.26263
 Alpha virt. eigenvalues --   -0.06042  -0.05370  -0.02712  -0.01416  -0.00987
 Alpha virt. eigenvalues --   -0.00173   0.00720   0.01185   0.01833   0.02343
 Alpha virt. eigenvalues --    0.03179   0.03268   0.04553   0.04632   0.05160
 Alpha virt. eigenvalues --    0.05478   0.06239   0.06296   0.06819   0.07286
 Alpha virt. eigenvalues --    0.07605   0.08150   0.08324   0.09040   0.09171
 Alpha virt. eigenvalues --    0.09726   0.09896   0.10174   0.10435   0.10874
 Alpha virt. eigenvalues --    0.11525   0.12044   0.12442   0.12712   0.12980
 Alpha virt. eigenvalues --    0.13337   0.13539   0.14186   0.14944   0.15553
 Alpha virt. eigenvalues --    0.15872   0.15922   0.17024   0.17441   0.17697
 Alpha virt. eigenvalues --    0.18130   0.18739   0.18947   0.19176   0.20111
 Alpha virt. eigenvalues --    0.20418   0.20556   0.21307   0.21569   0.21912
 Alpha virt. eigenvalues --    0.22141   0.22456   0.22837   0.23241   0.24078
 Alpha virt. eigenvalues --    0.24399   0.24684   0.25100   0.26060   0.26378
 Alpha virt. eigenvalues --    0.26813   0.27231   0.27521   0.27801   0.28236
 Alpha virt. eigenvalues --    0.28850   0.29605   0.30224   0.30977   0.31390
 Alpha virt. eigenvalues --    0.31812   0.32268   0.32662   0.33440   0.33616
 Alpha virt. eigenvalues --    0.33851   0.34345   0.35161   0.36063   0.36921
 Alpha virt. eigenvalues --    0.36974   0.38062   0.38348   0.38830   0.39211
 Alpha virt. eigenvalues --    0.40014   0.40886   0.41338   0.41684   0.42716
 Alpha virt. eigenvalues --    0.43330   0.43671   0.44220   0.44663   0.44998
 Alpha virt. eigenvalues --    0.45284   0.46057   0.46489   0.46569   0.47697
 Alpha virt. eigenvalues --    0.48254   0.48831   0.49421   0.50303   0.50542
 Alpha virt. eigenvalues --    0.50726   0.52045   0.52280   0.52691   0.53773
 Alpha virt. eigenvalues --    0.54357   0.54800   0.55153   0.56120   0.56786
 Alpha virt. eigenvalues --    0.56865   0.57549   0.58199   0.58616   0.59645
 Alpha virt. eigenvalues --    0.61232   0.61295   0.61689   0.63001   0.63433
 Alpha virt. eigenvalues --    0.64582   0.65068   0.66870   0.67410   0.67848
 Alpha virt. eigenvalues --    0.69794   0.70459   0.70869   0.71639   0.71869
 Alpha virt. eigenvalues --    0.72442   0.73397   0.74532   0.75445   0.76573
 Alpha virt. eigenvalues --    0.76756   0.77748   0.78394   0.78798   0.79301
 Alpha virt. eigenvalues --    0.80854   0.82031   0.82288   0.83554   0.83732
 Alpha virt. eigenvalues --    0.84571   0.85481   0.86754   0.88171   0.88929
 Alpha virt. eigenvalues --    0.89082   0.89908   0.90818   0.91489   0.93836
 Alpha virt. eigenvalues --    0.94184   0.94595   0.95658   0.96387   0.96924
 Alpha virt. eigenvalues --    0.97403   0.99302   0.99968   1.00583   1.01154
 Alpha virt. eigenvalues --    1.01886   1.03133   1.03254   1.04716   1.05020
 Alpha virt. eigenvalues --    1.05936   1.06171   1.07116   1.08616   1.09095
 Alpha virt. eigenvalues --    1.10002   1.10616   1.11641   1.13244   1.13929
 Alpha virt. eigenvalues --    1.14142   1.15129   1.15744   1.16420   1.17774
 Alpha virt. eigenvalues --    1.19162   1.19764   1.20710   1.21859   1.22975
 Alpha virt. eigenvalues --    1.23592   1.24721   1.26145   1.26455   1.27685
 Alpha virt. eigenvalues --    1.29221   1.30255   1.31950   1.32860   1.34039
 Alpha virt. eigenvalues --    1.36843   1.37546   1.39088   1.40782   1.41649
 Alpha virt. eigenvalues --    1.43476   1.45954   1.46422   1.47697   1.49454
 Alpha virt. eigenvalues --    1.49837   1.53662   1.53822   1.55581   1.56211
 Alpha virt. eigenvalues --    1.57219   1.58969   1.60839   1.62380   1.63426
 Alpha virt. eigenvalues --    1.64221   1.65412   1.67025   1.69862   1.71642
 Alpha virt. eigenvalues --    1.72298   1.73976   1.74740   1.75820   1.77087
 Alpha virt. eigenvalues --    1.78709   1.79834   1.80753   1.81685   1.82290
 Alpha virt. eigenvalues --    1.83876   1.85795   1.87580   1.88900   1.90867
 Alpha virt. eigenvalues --    1.93706   1.94682   1.95186   1.95803   1.98818
 Alpha virt. eigenvalues --    1.99926   2.00834   2.01748   2.02953   2.06197
 Alpha virt. eigenvalues --    2.07409   2.08909   2.10711   2.12716   2.15456
 Alpha virt. eigenvalues --    2.16174   2.18128   2.19041   2.20108   2.21510
 Alpha virt. eigenvalues --    2.24093   2.25687   2.25986   2.27325   2.28774
 Alpha virt. eigenvalues --    2.32551   2.33841   2.35771   2.37265   2.39786
 Alpha virt. eigenvalues --    2.44051   2.46438   2.49227   2.50890   2.51550
 Alpha virt. eigenvalues --    2.54690   2.56502   2.58160   2.60161   2.60737
 Alpha virt. eigenvalues --    2.62558   2.63328   2.65354   2.69818   2.70221
 Alpha virt. eigenvalues --    2.73050   2.75346   2.76990   2.80255   2.81817
 Alpha virt. eigenvalues --    2.83555   2.87821   2.89902   2.94521   2.98451
 Alpha virt. eigenvalues --    3.15201   3.34522   3.35823   3.35845   3.37510
 Alpha virt. eigenvalues --    3.37741   3.39930   3.41635   3.41977   3.42370
 Alpha virt. eigenvalues --    3.44861   3.45697   3.47606   3.50208   3.50904
 Alpha virt. eigenvalues --    3.51746   3.52797   3.55469   3.58272   3.59594
 Alpha virt. eigenvalues --    3.63663   3.71518   3.78682   3.81279   3.82709
 Alpha virt. eigenvalues --    3.99509   4.01782   4.02386   4.66421   4.68374
 Alpha virt. eigenvalues --    4.89519   4.94430   4.98313   5.86825   5.97225
 Alpha virt. eigenvalues --    6.17858  13.80318  13.81511  13.99077  14.03181
 Alpha virt. eigenvalues --   14.10490  22.82394
          Condensed to atoms (all electrons):
              1          2          3          4          5          6
     1  P   14.019549  -0.283376  -0.206410   0.006767  -0.071209   0.106800
     2  O   -0.283376   9.064248   0.066594  -0.175300  -0.011827   0.009364
     3  O   -0.206410   0.066594   8.929389   0.005252   0.026112   0.052089
     4  N    0.006767  -0.175300   0.005252   8.414106   0.303797  -0.080879
     5  H   -0.071209  -0.011827   0.026112   0.303797   1.244993   0.007389
     6  S    0.106800   0.009364   0.052089  -0.080879   0.007389  16.209444
     7  C   -0.464985   0.169732   0.042252  -0.656241  -0.242714   0.033935
     8  H    0.020022   0.026057   0.000539  -0.401346  -0.043128  -0.010123
     9  H    0.027715  -0.018717  -0.002629  -0.038433   0.064911  -0.033812
    10  C   -0.028394   0.015243   0.003211  -0.209127  -0.015208   0.088005
    11  H   -0.039817   0.013468   0.001620  -0.059583  -0.010761  -0.052446
    12  O   -0.022053   0.000331  -0.038740  -0.064192   0.018657   0.005340
    13  H   -0.005346   0.004034   0.079735   0.008189   0.006219  -0.003421
    14  H    0.000479  -0.000871  -0.006682   0.027780  -0.001619  -0.001585
    15  O    0.004170  -0.000911   0.000134  -0.094195  -0.068305  -0.000440
    16  H    0.003979  -0.002831  -0.000291   0.003278   0.008352  -0.001363
    17  H   -0.013819   0.001405   0.003194   0.014691  -0.002296   0.002904
    18  H   -0.023067   0.018090  -0.036119   0.098410  -0.365721   0.013214
    19  O   -0.010165  -0.024963  -0.001217   0.021079  -0.006809  -0.000256
    20  H    0.005208   0.092760   0.000565  -0.003736   0.008071  -0.002371
    21  H   -0.000778  -0.014020  -0.000722   0.000299  -0.001282   0.000053
    22  C   -0.004592  -0.039536   0.022038   0.135647   0.078624   0.046086
    23  H    0.112492   0.047934  -0.005559  -0.162226  -0.018452  -0.055292
    24  H    0.094248  -0.003125  -0.002209   0.070629   0.017579  -0.134950
    25  I   -0.011845  -0.005034   0.000275  -0.012673   0.002000   0.034840
              7          8          9         10         11         12
     1  P   -0.464985   0.020022   0.027715  -0.028394  -0.039817  -0.022053
     2  O    0.169732   0.026057  -0.018717   0.015243   0.013468   0.000331
     3  O    0.042252   0.000539  -0.002629   0.003211   0.001620  -0.038740
     4  N   -0.656241  -0.401346  -0.038433  -0.209127  -0.059583  -0.064192
     5  H   -0.242714  -0.043128   0.064911  -0.015208  -0.010761   0.018657
     6  S    0.033935  -0.010123  -0.033812   0.088005  -0.052446   0.005340
     7  C    7.479907  -0.047092  -0.523120   0.523173   0.120912   0.025257
     8  H   -0.047092   2.965764  -0.835423   0.173645   0.015356  -0.006257
     9  H   -0.523120  -0.835423   3.347083  -0.242377   0.029706   0.003804
    10  C    0.523173   0.173645  -0.242377   5.412244  -0.109349   0.002663
    11  H    0.120912   0.015356   0.029706  -0.109349   1.974609  -0.000216
    12  O    0.025257  -0.006257   0.003804   0.002663  -0.000216   7.797843
    13  H   -0.010711   0.001759   0.004062  -0.001108  -0.000012   0.284144
    14  H   -0.006752  -0.001804  -0.001723   0.000323  -0.000109   0.323402
    15  O    0.032914   0.022176  -0.008120   0.002645  -0.000394   0.000675
    16  H    0.019345  -0.002253   0.003024   0.003835   0.000601  -0.000310
    17  H   -0.021295   0.001924  -0.004416  -0.004106  -0.000098   0.000005
    18  H    0.177792  -0.022626  -0.091178   0.037769   0.001773   0.002946
    19  O   -0.012143  -0.001250  -0.000535  -0.001337   0.000004  -0.000012
    20  H   -0.011111   0.003184  -0.002889   0.002973  -0.001388  -0.000013
    21  H    0.000896  -0.000697   0.000640  -0.000461  -0.000041  -0.000042
    22  C   -2.060859  -0.277554  -0.199903  -0.800603   0.178526  -0.025853
    23  H   -0.321231   0.049831   0.041431   0.050634  -0.115086  -0.002051
    24  H   -0.184422  -0.002513  -0.053951   0.188696  -0.511896   0.000610
    25  I    0.417204  -0.051508   0.021346   0.027821   0.005883   0.000018
             13         14         15         16         17         18
     1  P   -0.005346   0.000479   0.004170   0.003979  -0.013819  -0.023067
     2  O    0.004034  -0.000871  -0.000911  -0.002831   0.001405   0.018090
     3  O    0.079735  -0.006682   0.000134  -0.000291   0.003194  -0.036119
     4  N    0.008189   0.027780  -0.094195   0.003278   0.014691   0.098410
     5  H    0.006219  -0.001619  -0.068305   0.008352  -0.002296  -0.365721
     6  S   -0.003421  -0.001585  -0.000440  -0.001363   0.002904   0.013214
     7  C   -0.010711  -0.006752   0.032914   0.019345  -0.021295   0.177792
     8  H    0.001759  -0.001804   0.022176  -0.002253   0.001924  -0.022626
     9  H    0.004062  -0.001723  -0.008120   0.003024  -0.004416  -0.091178
    10  C   -0.001108   0.000323   0.002645   0.003835  -0.004106   0.037769
    11  H   -0.000012  -0.000109  -0.000394   0.000601  -0.000098   0.001773
    12  O    0.284144   0.323402   0.000675  -0.000310   0.000005   0.002946
    13  H    0.598946  -0.117988  -0.000544   0.000177  -0.000346  -0.014950
    14  H   -0.117988   0.672930  -0.000081  -0.000025   0.000019   0.010122
    15  O   -0.000544  -0.000081   7.858802   0.323463   0.307644   0.020304
    16  H    0.000177  -0.000025   0.323463   0.707332  -0.137656  -0.002784
    17  H   -0.000346   0.000019   0.307644  -0.137656   0.602725   0.001340
    18  H   -0.014950   0.010122   0.020304  -0.002784   0.001340   1.314060
    19  O   -0.000217  -0.000017  -0.062799   0.000128   0.024961   0.002574
    20  H    0.000221  -0.000076  -0.008299  -0.003194   0.001734   0.001730
    21  H   -0.000018   0.000014   0.004072   0.000544  -0.002379  -0.000503
    22  C    0.004589  -0.000101  -0.039508  -0.008597   0.016311  -0.174502
    23  H    0.001269  -0.000391  -0.002775   0.000632  -0.003474  -0.006684
    24  H    0.000086   0.000150   0.000167  -0.000614  -0.000027  -0.004591
    25  I   -0.000113   0.000011   0.002114   0.008927  -0.006130   0.007911
             19         20         21         22         23         24
     1  P   -0.010165   0.005208  -0.000778  -0.004592   0.112492   0.094248
     2  O   -0.024963   0.092760  -0.014020  -0.039536   0.047934  -0.003125
     3  O   -0.001217   0.000565  -0.000722   0.022038  -0.005559  -0.002209
     4  N    0.021079  -0.003736   0.000299   0.135647  -0.162226   0.070629
     5  H   -0.006809   0.008071  -0.001282   0.078624  -0.018452   0.017579
     6  S   -0.000256  -0.002371   0.000053   0.046086  -0.055292  -0.134950
     7  C   -0.012143  -0.011111   0.000896  -2.060859  -0.321231  -0.184422
     8  H   -0.001250   0.003184  -0.000697  -0.277554   0.049831  -0.002513
     9  H   -0.000535  -0.002889   0.000640  -0.199903   0.041431  -0.053951
    10  C   -0.001337   0.002973  -0.000461  -0.800603   0.050634   0.188696
    11  H    0.000004  -0.001388  -0.000041   0.178526  -0.115086  -0.511896
    12  O   -0.000012  -0.000013  -0.000042  -0.025853  -0.002051   0.000610
    13  H   -0.000217   0.000221  -0.000018   0.004589   0.001269   0.000086
    14  H   -0.000017  -0.000076   0.000014  -0.000101  -0.000391   0.000150
    15  O   -0.062799  -0.008299   0.004072  -0.039508  -0.002775   0.000167
    16  H    0.000128  -0.003194   0.000544  -0.008597   0.000632  -0.000614
    17  H    0.024961   0.001734  -0.002379   0.016311  -0.003474  -0.000027
    18  H    0.002574   0.001730  -0.000503  -0.174502  -0.006684  -0.004591
    19  O    7.811657   0.225688   0.357769   0.007769  -0.000162   0.000053
    20  H    0.225688   0.608212  -0.118510   0.004591  -0.011125   0.000941
    21  H    0.357769  -0.118510   0.651020  -0.000815   0.001925  -0.000043
    22  C    0.007769   0.004591  -0.000815  10.052987  -0.342842  -0.240732
    23  H   -0.000162  -0.011125   0.001925  -0.342842   2.118934   0.096547
    24  H    0.000053   0.000941  -0.000043  -0.240732   0.096547   2.077240
    25  I   -0.000624  -0.002821   0.000320  -0.604409  -0.063714   0.004406
             25
     1  P   -0.011845
     2  O   -0.005034
     3  O    0.000275
     4  N   -0.012673
     5  H    0.002000
     6  S    0.034840
     7  C    0.417204
     8  H   -0.051508
     9  H    0.021346
    10  C    0.027821
    11  H    0.005883
    12  O    0.000018
    13  H   -0.000113
    14  H    0.000011
    15  O    0.002114
    16  H    0.008927
    17  H   -0.006130
    18  H    0.007911
    19  O   -0.000624
    20  H   -0.002821
    21  H    0.000320
    22  C   -0.604409
    23  H   -0.063714
    24  H    0.004406
    25  I   17.160148
 Mulliken atomic charges:
              1
     1  P    1.784427
     2  O   -0.948750
     3  O   -0.932425
     4  N   -0.151993
     5  H    0.072624
     6  S   -0.232525
     7  C    1.519358
     8  H   -0.576683
     9  H   -0.486495
    10  C    0.879190
    11  H   -0.441260
    12  O   -0.305954
    13  H    0.161345
    14  H    0.104596
    15  O   -0.292911
    16  H    0.076301
    17  H    0.217184
    18  H    0.034691
    19  O   -0.329176
    20  H    0.209656
    21  H    0.122759
    22  C    0.273236
    23  H   -0.410563
    24  H   -0.412280
    25  I    0.065647
 Sum of Mulliken charges=   0.00000
 Atomic charges with hydrogens summed into heavy atoms:
              1
     1  P    1.784427
     2  O   -0.948750
[...]
 The electronic state is 1-A.
 Alpha  occ. eigenvalues --  -88.90269 -77.17614 -19.15368 -19.15112 -19.15022
 Alpha  occ. eigenvalues --  -19.13571 -19.13460 -14.40913 -10.25868 -10.25238
 Alpha  occ. eigenvalues --  -10.23992  -7.96302  -6.65033  -5.92675  -5.92376
 Alpha  occ. eigenvalues --   -5.91760  -4.81412  -4.81182  -4.80934  -2.14744
 Alpha  occ. eigenvalues --   -2.14370  -2.14347  -2.13311  -2.13310  -1.02884
 Alpha  occ. eigenvalues --   -1.02067  -1.01262  -1.00610  -0.96504  -0.95849
 Alpha  occ. eigenvalues --   -0.83724  -0.76686  -0.69998  -0.67531  -0.61917
 Alpha  occ. eigenvalues --   -0.57470  -0.55549  -0.54306  -0.53267  -0.52451
 Alpha  occ. eigenvalues --   -0.51420  -0.49682  -0.46201  -0.44667  -0.43231
 Alpha  occ. eigenvalues --   -0.42644  -0.40916  -0.40551  -0.39601  -0.39396
 Alpha  occ. eigenvalues --   -0.38917  -0.36968  -0.34334  -0.33223  -0.32595
 Alpha  occ. eigenvalues --   -0.32408  -0.32124  -0.32095  -0.31241  -0.30480
 Alpha  occ. eigenvalues --   -0.26936  -0.26610  -0.26227
 Alpha virt. eigenvalues --   -0.06664  -0.01861  -0.01097   0.00279   0.00952
 Alpha virt. eigenvalues --    0.01298   0.02978   0.03426   0.03779   0.04364
 Alpha virt. eigenvalues --    0.04534   0.05263   0.05444   0.06515   0.07652
 Alpha virt. eigenvalues --    0.07745   0.08551   0.08742   0.09129   0.09147
 Alpha virt. eigenvalues --    0.09957   0.10561   0.11224   0.12312   0.12638
 Alpha virt. eigenvalues --    0.12777   0.13843   0.14449   0.14677   0.15206
 Alpha virt. eigenvalues --    0.15618   0.16025   0.16416   0.16958   0.17242
 Alpha virt. eigenvalues --    0.17532   0.17878   0.18085   0.19142   0.19594
 Alpha virt. eigenvalues --    0.20419   0.20600   0.20892   0.21391   0.21777
 Alpha virt. eigenvalues --    0.22340   0.23025   0.23584   0.24059   0.24179
 Alpha virt. eigenvalues --    0.25080   0.25934   0.26725   0.27156   0.27803
 Alpha virt. eigenvalues --    0.28164   0.29193   0.29790   0.30160   0.30992
 Alpha virt. eigenvalues --    0.31402   0.31844   0.32900   0.33373   0.34326
 Alpha virt. eigenvalues --    0.34604   0.35861   0.36460   0.36876   0.37154
 Alpha virt. eigenvalues --    0.38026   0.38239   0.39739   0.40687   0.41412
 Alpha virt. eigenvalues --    0.41962   0.43276   0.43838   0.44749   0.45797
 Alpha virt. eigenvalues --    0.46745   0.47900   0.48989   0.49133   0.50698
 Alpha virt. eigenvalues --    0.51799   0.53021   0.54095   0.54968   0.56086
 Alpha virt. eigenvalues --    0.56308   0.56949   0.57815   0.57991   0.59050
 Alpha virt. eigenvalues --    0.60773   0.61209   0.62766   0.64021   0.65292
 Alpha virt. eigenvalues --    0.66049   0.67200   0.67866   0.68168   0.69127
 Alpha virt. eigenvalues --    0.70032   0.72353   0.73315   0.73658   0.74188
 Alpha virt. eigenvalues --    0.74709   0.75557   0.76519   0.78015   0.78917
 Alpha virt. eigenvalues --    0.79302   0.80476   0.81395   0.81964   0.82568
 Alpha virt. eigenvalues --    0.83078   0.83884   0.85289   0.85697   0.86188
 Alpha virt. eigenvalues --    0.86881   0.87518   0.87997   0.88832   0.90337
 Alpha virt. eigenvalues --    0.91422   0.91567   0.92414   0.92610   0.93081
 Alpha virt. eigenvalues --    0.93671   0.94570   0.95294   0.95826   0.96994
 Alpha virt. eigenvalues --    0.97941   0.98888   0.99496   1.00285   1.00708
 Alpha virt. eigenvalues --    1.01999   1.03944   1.04823   1.05308   1.05883
 Alpha virt. eigenvalues --    1.06766   1.07539   1.08436   1.09103   1.09800
 Alpha virt. eigenvalues --    1.10626   1.11491   1.12506   1.14321   1.15344
 Alpha virt. eigenvalues --    1.16034   1.16736   1.18620   1.19073   1.19777
 Alpha virt. eigenvalues --    1.21101   1.21595   1.22256   1.23667   1.24492
 Alpha virt. eigenvalues --    1.26551   1.26637   1.28522   1.29280   1.30483
 Alpha virt. eigenvalues --    1.30598   1.31836   1.34682   1.35797   1.37674
 Alpha virt. eigenvalues --    1.38657   1.40261   1.41063   1.42335   1.44482
 Alpha virt. eigenvalues --    1.45513   1.46360   1.48181   1.49048   1.50210
 Alpha virt. eigenvalues --    1.51523   1.52754   1.53918   1.56683   1.59452
 Alpha virt. eigenvalues --    1.60546   1.62749   1.62921   1.64680   1.66823
 Alpha virt. eigenvalues --    1.67048   1.67814   1.68934   1.70247   1.72002
 Alpha virt. eigenvalues --    1.72266   1.73581   1.75211   1.76434   1.77403
 Alpha virt. eigenvalues --    1.77925   1.78446   1.79941   1.83025   1.84613
 Alpha virt. eigenvalues --    1.84863   1.85616   1.87419   1.88026   1.89487
 Alpha virt. eigenvalues --    1.89949   1.92472   1.93003   1.94982   1.96925
 Alpha virt. eigenvalues --    1.98796   1.99820   2.01110   2.02571   2.03983
 Alpha virt. eigenvalues --    2.06499   2.07855   2.11104   2.11418   2.12352
 Alpha virt. eigenvalues --    2.13625   2.16688   2.17600   2.18632   2.21971
 Alpha virt. eigenvalues --    2.22162   2.24964   2.25631   2.28098   2.29391
 Alpha virt. eigenvalues --    2.31321   2.32552   2.34286   2.35105   2.37580
 Alpha virt. eigenvalues --    2.38293   2.40243   2.41616   2.43624   2.46810
 Alpha virt. eigenvalues --    2.47497   2.48885   2.50244   2.52680   2.53253
 Alpha virt. eigenvalues --    2.53628   2.58175   2.58625   2.60243   2.62258
 Alpha virt. eigenvalues --    2.65342   2.68406   2.69617   2.70758   2.75027
 Alpha virt. eigenvalues --    2.75722   2.78081   2.80502   2.98675   3.13767
 Alpha virt. eigenvalues --    3.15433   3.17707   3.18458   3.21480   3.23337
 Alpha virt. eigenvalues --    3.25008   3.29430   3.31985   3.32596   3.33357
 Alpha virt. eigenvalues --    3.34311   3.36493   3.41665   3.43040   3.47097
 Alpha virt. eigenvalues --    3.48450   3.49235   3.52453   3.54801   3.57185
 Alpha virt. eigenvalues --    3.59281   3.61457   3.65825   3.68448   3.76846
 Alpha virt. eigenvalues --    3.80097   3.80689   3.84640   3.91191   4.64556
 Alpha virt. eigenvalues --    4.65236   4.80379   4.85476   4.90920   4.93083
 Alpha virt. eigenvalues --    4.94475   5.07132   5.22941   5.31539   5.36646
 Alpha virt. eigenvalues --    5.41600   5.44889   5.45338   5.49304   5.51711
 Alpha virt. eigenvalues --    5.52957   5.54524   5.56318   5.60665   5.65296
 Alpha virt. eigenvalues --    5.73417   5.76924   5.80496   5.88712   6.10438
 Alpha virt. eigenvalues --    6.78564   6.81213   6.84516   6.87153   6.92045
 Alpha virt. eigenvalues --    6.93782   6.99810   8.78143   8.99857   9.00824
 Alpha virt. eigenvalues --   10.08845  13.79355  13.79807  13.91775  13.96421
 Alpha virt. eigenvalues --   14.06717  20.72605  20.73654  20.82855  20.96162
 Alpha virt. eigenvalues --   20.98750  22.40255  35.08256  35.26818  35.28161
 Alpha virt. eigenvalues --   36.80692  36.89021  36.97112  36.97864  36.99749
 Alpha virt. eigenvalues --   37.01308  37.02367  37.04263  37.05304  37.06513
 Alpha virt. eigenvalues --   37.10248  37.17896  37.27210  59.06621
          Condensed to atoms (all electrons):
              1          2          3          4          5          6
     1  P   13.453782  -0.007545   0.016079   0.144928  -0.020749   0.294593
     2  O   -0.007545   8.964992  -0.053467  -0.007052   0.000127  -0.019585
     3  O    0.016079  -0.053467   8.945509  -0.009511   0.001443  -0.011818
     4  N    0.144928  -0.007052  -0.009511   6.970508   0.349035  -0.010072
     5  H   -0.020749   0.000127   0.001443   0.349035   0.296774   0.001166
     6  S    0.294593  -0.019585  -0.011818  -0.010072   0.001166  15.883602
     7  C   -0.291530   0.111596   0.026004  -0.362103  -0.008559   0.011365
     8  H    0.005759  -0.000884  -0.000067  -0.030801  -0.005452   0.001633
     9  H    0.008806  -0.000951   0.000344  -0.003995   0.001612   0.004181
    10  C   -0.096146   0.005912   0.015241   0.011265   0.001243  -0.052795
    11  H   -0.003581   0.000588   0.000068  -0.002400   0.000008  -0.026597
    12  O    0.004757  -0.002081  -0.043399  -0.062252   0.000780  -0.003971
    13  H    0.009493   0.000022   0.015760  -0.000326   0.000124  -0.002545
    14  H    0.004225  -0.000042   0.003872   0.005872   0.000000  -0.001225
    15  O    0.014549  -0.003290   0.000412  -0.067148   0.012932  -0.001422
    16  H    0.000147  -0.000347  -0.000068   0.006465  -0.001419   0.000005
    17  H    0.001215  -0.001148  -0.000088   0.004814  -0.001904   0.000095
    18  H   -0.018272   0.000517  -0.009277   0.362240  -0.005387   0.001780
    19  O   -0.015791  -0.040279  -0.000136   0.003416   0.000513   0.000124
    20  H    0.010576   0.020827  -0.002022  -0.002620   0.000151  -0.000438
    21  H    0.004008   0.006469  -0.000579  -0.001294   0.000004  -0.000057
    22  C    0.102495  -0.039071  -0.018789   0.258588  -0.005008  -0.019667
    23  H    0.018944  -0.008242  -0.000030   0.001064  -0.000313   0.004379
    24  H    0.011147  -0.001093  -0.000353   0.004406  -0.000002  -0.052726
    25  I    0.007125  -0.003395  -0.000124   0.013175  -0.000131   0.033912
              7          8          9         10         11         12
     1  P   -0.291530   0.005759   0.008806  -0.096146  -0.003581   0.004757
     2  O    0.111596  -0.000884  -0.000951   0.005912   0.000588  -0.002081
     3  O    0.026004  -0.000067   0.000344   0.015241   0.000068  -0.043399
     4  N   -0.362103  -0.030801  -0.003995   0.011265  -0.002400  -0.062252
     5  H   -0.008559  -0.005452   0.001612   0.001243   0.000008   0.000780
     6  S    0.011365   0.001633   0.004181  -0.052795  -0.026597  -0.003971
     7  C    6.713408   0.379255   0.341178  -0.013186   0.006859  -0.001280
     8  H    0.379255   0.421768  -0.007796   0.005869  -0.000006  -0.000118
     9  H    0.341178  -0.007796   0.424480  -0.004315  -0.000018   0.001816
    10  C   -0.013186   0.005869  -0.004315   6.243211   0.388065   0.000609
    11  H    0.006859  -0.000006  -0.000018   0.388065   0.431049  -0.000006
    12  O   -0.001280  -0.000118   0.001816   0.000609  -0.000006   8.108702
    13  H    0.001221  -0.000001  -0.000002  -0.000136   0.000000   0.299796
    14  H   -0.000160   0.000002  -0.000031  -0.000189   0.000000   0.312704
    15  O   -0.026716   0.002300  -0.000834  -0.002947   0.000002   0.001835
    16  H    0.003185  -0.000080   0.000001   0.000009   0.000000  -0.000021
    17  H    0.001855  -0.000012   0.000001  -0.000082   0.000000  -0.000040
    18  H   -0.005607   0.001930  -0.005490  -0.000930   0.000001   0.024030
    19  O   -0.000055   0.000012  -0.000004  -0.000849   0.000022   0.000251
    20  H   -0.000755   0.000000   0.000000  -0.000116  -0.000002  -0.000009
    21  H    0.000048   0.000000   0.000000   0.000060   0.000000   0.000000
    22  C   -0.853807  -0.008219   0.007442  -0.535716  -0.002735  -0.009868
    23  H   -0.060234   0.002128   0.000905   0.007664  -0.005406  -0.000041
    24  H   -0.013266  -0.000055   0.001388   0.408186  -0.001246  -0.000014
    25  I    0.025045   0.000992  -0.000228   0.114649   0.000752   0.000019
             13         14         15         16         17         18
     1  P    0.009493   0.004225   0.014549   0.000147   0.001215  -0.018272
     2  O    0.000022  -0.000042  -0.003290  -0.000347  -0.001148   0.000517
     3  O    0.015760   0.003872   0.000412  -0.000068  -0.000088  -0.009277
     4  N   -0.000326   0.005872  -0.067148   0.006465   0.004814   0.362240
     5  H    0.000124   0.000000   0.012932  -0.001419  -0.001904  -0.005387
     6  S   -0.002545  -0.001225  -0.001422   0.000005   0.000095   0.001780
     7  C    0.001221  -0.000160  -0.026716   0.003185   0.001855  -0.005607
     8  H   -0.000001   0.000002   0.002300  -0.000080  -0.000012   0.001930
     9  H   -0.000002  -0.000031  -0.000834   0.000001   0.000001  -0.005490
    10  C   -0.000136  -0.000189  -0.002947   0.000009  -0.000082  -0.000930
    11  H    0.000000   0.000000   0.000002   0.000000   0.000000   0.000001
    12  O    0.299796   0.312704   0.001835  -0.000021  -0.000040   0.024030
    13  H    0.355570  -0.013466  -0.000169   0.000000   0.000000  -0.004524
    14  H   -0.013466   0.386235  -0.000014   0.000000   0.000000  -0.000776
    15  O   -0.000169  -0.000014   8.179095   0.317514   0.303185   0.001321
    16  H    0.000000   0.000000   0.317514   0.388509  -0.016077  -0.000006
    17  H    0.000000   0.000000   0.303185  -0.016077   0.327577  -0.000011
    18  H   -0.004524  -0.000776   0.001321  -0.000006  -0.000011   0.328747
    19  O   -0.000021  -0.000001  -0.072079   0.004917   0.024489   0.000012
    20  H    0.000001   0.000000   0.003247  -0.000013  -0.001916   0.000002
    21  H    0.000000   0.000000   0.003798  -0.000019  -0.000738   0.000000
    22  C    0.000759   0.000487   0.000155  -0.000840  -0.000913  -0.008528
    23  H    0.000000   0.000000   0.000355  -0.000003  -0.000005  -0.000125
    24  H    0.000000   0.000000   0.000003   0.000000   0.000000  -0.000001
    25  I    0.000000   0.000000  -0.000023  -0.000003   0.000003  -0.000114
             19         20         21         22         23         24
     1  P   -0.015791   0.010576   0.004008   0.102495   0.018944   0.011147
     2  O   -0.040279   0.020827   0.006469  -0.039071  -0.008242  -0.001093
     3  O   -0.000136  -0.002022  -0.000579  -0.018789  -0.000030  -0.000353
     4  N    0.003416  -0.002620  -0.001294   0.258588   0.001064   0.004406
     5  H    0.000513   0.000151   0.000004  -0.005008  -0.000313  -0.000002
     6  S    0.000124  -0.000438  -0.000057  -0.019667   0.004379  -0.052726
     7  C   -0.000055  -0.000755   0.000048  -0.853807  -0.060234  -0.013266
     8  H    0.000012   0.000000   0.000000  -0.008219   0.002128  -0.000055
     9  H   -0.000004   0.000000   0.000000   0.007442   0.000905   0.001388
    10  C   -0.000849  -0.000116   0.000060  -0.535716   0.007664   0.408186
    11  H    0.000022  -0.000002   0.000000  -0.002735  -0.005406  -0.001246
    12  O    0.000251  -0.000009   0.000000  -0.009868  -0.000041  -0.000014
    13  H   -0.000021   0.000001   0.000000   0.000759   0.000000   0.000000
    14  H   -0.000001   0.000000   0.000000   0.000487   0.000000   0.000000
    15  O   -0.072079   0.003247   0.003798   0.000155   0.000355   0.000003
    16  H    0.004917  -0.000013  -0.000019  -0.000840  -0.000003   0.000000
    17  H    0.024489  -0.001916  -0.000738  -0.000913  -0.000005   0.000000
    18  H    0.000012   0.000002   0.000000  -0.008528  -0.000125  -0.000001
    19  O    8.138141   0.296020   0.314543   0.001745  -0.000315  -0.000004
    20  H    0.296020   0.322000  -0.015345   0.000502   0.000006   0.000000
    21  H    0.314543  -0.015345   0.389095  -0.000262   0.000000   0.000000
    22  C    0.001745   0.000502  -0.000262   7.349663   0.416988  -0.012874
    23  H   -0.000315   0.000006   0.000000   0.416988   0.431902   0.000755
    24  H   -0.000004   0.000000   0.000000  -0.012874   0.000755   0.401918
    25  I   -0.000072  -0.000001   0.000000  -0.211953  -0.001261  -0.002536
             25
     1  P    0.007125
     2  O   -0.003395
     3  O   -0.000124
     4  N    0.013175
     5  H   -0.000131
     6  S    0.033912
     7  C    0.025045
     8  H    0.000992
     9  H   -0.000228
    10  C    0.114649
    11  H    0.000752
    12  O    0.000019
    13  H    0.000000
    14  H    0.000000
    15  O   -0.000023
    16  H   -0.000003
    17  H    0.000003
    18  H   -0.000114
    19  O   -0.000072
    20  H   -0.000001
    21  H    0.000000
    22  C   -0.211953
    23  H   -0.001261
    24  H   -0.002536
    25  I   16.931316
 Mulliken atomic charges:
              1
     1  P    1.340985
     2  O   -0.922576
     3  O   -0.875005
     4  N   -0.576203
     5  H    0.383012
     6  S   -0.033917
     7  C    0.016239
     8  H    0.231843
     9  H    0.231510
    10  C   -0.494576
    11  H    0.214582
    12  O   -0.632196
    13  H    0.338442
    14  H    0.302509
    15  O   -0.666062
    16  H    0.298144
    17  H    0.359701
    18  H    0.338466
    19  O   -0.654598
    20  H    0.369902
    21  H    0.300268
    22  C   -0.410574
    23  H    0.190884
    24  H    0.256368
    25  I    0.092852
 Sum of Mulliken charges=   0.00000
 Atomic charges with hydrogens summed into heavy atoms:
              1
     1  P    1.340985
     2  O   -0.922576
     3  O   -0.875005
     4  N    0.145275
     5  H    0.000000
     6  S   -0.033917
     7  C    0.479592
     8  H    0.000000
     9  H    0.000000
    10  C   -0.023626
    11  H    0.000000
    12  O    0.008754
    13  H    0.000000
    14  H    0.000000
    15  O   -0.008217
    16  H    0.000000
    17  H    0.000000
    18  H    0.000000
    19  O    0.015572
    20  H    0.000000
    21  H    0.000000
    22  C   -0.219690
    23  H    0.000000
    24  H    0.000000
    25  I    0.092852
 Sum of Mulliken charges=   0.00000
 Electronic spatial extent (au):  <R**2>=  4153.1064
 Charge=     0.0000 electrons
 Dipole moment (field-independent basis, Debye):
    X=     4.3552    Y=    -0.4610    Z=     3.8340  Tot=     5.8206
 Quadrupole moment (field-independent basis, Debye-Ang):
   XX=  -119.8562   YY=  -100.4720   ZZ=  -109.3391
   XY=    -3.1523   XZ=    -2.2960   YZ=    -1.8811
 Traceless Quadrupole moment (field-independent basis, Debye-Ang):
   XX=    -9.9671   YY=     9.4171   ZZ=     0.5500
   XY=    -3.1523   XZ=    -2.2960   YZ=    -1.8811
 Octapole moment (field-independent basis, Debye-Ang**2):
  XXX=   165.2237  YYY=    42.9662  ZZZ=    28.0386  XYY=    21.9365
  XXY=    29.5882  XXZ=    -3.2589  XZZ=    48.4068  YZZ=    -8.9284
  YYZ=    38.6312  XYZ=    33.1807
 Hexadecapole moment (field-independent basis, Debye-Ang**3):
 XXXX= -3478.9179 YYYY= -1395.1837 ZZZZ=  -891.5660 XXXY=   -94.4711
 XXXZ=    88.4924 YYYX=   -12.8200 YYYZ=    16.4893 ZZZX=    -3.7447
 ZZZY=   -55.6681 XXYY=  -712.4738 XXZZ=  -741.1255 YYZZ=  -355.4214
 XXYZ=  -138.0618 YYXZ=   -39.9361 ZZXY=    54.0204
 N-N= 1.181101100452D+03 E-N=-5.684377951713D+03  KE= 1.360160874090D+03
 Calculating spin-rotation constants.
 Leave Link  601 at Sat Aug  2 19:21:55 2008, MaxMem= 1073741824 cpu:     151.5
 (Enter /usr/local/Chem-Apps/g03_d01/g03/l9999.exe)
 1\1\ SGI ALTIX 4700 1.6GHZ/9MB-MAGELLAN\SP\RB3LYP\Gen\C3H13I1N1O5P1S1\
 IK1\02-Aug-2008\0\\#p nmr=(giao,spinspin) b3lyp/Gen scf=tight integral
 =(grid=ultrafine) pseudo=read scrf=(pcm,solvent=water,read) guess=read
  geom=checkpoint\\Molecule 8, NMR and scalar couplings.\\0,1\P,0,-2.26
 87513716,-0.5547584925,-0.6507768169\O,0,-2.1745042706,0.649075941,-1.
 5776182226\O,0,-3.5489595786,-1.223564884,-0.1836992644\N,0,-1.4547237
 576,0.0629804814,0.957313607\H,0,-1.7642483444,1.0524104663,1.09570734
 31\S,0,-0.819965255,-2.0329554521,-1.1378214619\C,0,0.0474321763,0.011
 4772697,1.0327800066\H,0,0.3592791496,0.7693745652,1.7577364106\H,0,0.
 3370247327,-0.975468859,1.4080131919\C,0,0.681730443,-0.9270123793,-1.
 2892728103\H,0,0.7741493699,-0.5889043113,-2.3256556892\O,0,-3.1245126
 097,-1.6289673272,2.4824270442\H,0,-3.5152639945,-1.6864693847,1.58108
 50955\H,0,-3.0623855427,-2.5341249229,2.8067071402\O,0,-2.2801504428,2
 .7123914571,1.3058321889\H,0,-1.8349543808,3.5034805707,1.6267171311\H
 ,0,-2.7482923125,2.9688700365,0.4701950502\H,0,-1.8737816142,-0.509500
 2925,1.716030434\O,0,-3.391854326,3.0252957782,-1.1159532418\H,0,-3.03
 59477231,2.1571580739,-1.4233761098\H,0,-4.3448961465,2.9800050606,-1.
 2531397671\C,0,0.6707761686,0.27477068,-0.3407650186\H,0,0.1772290881,
 1.1269570071,-0.8137865845\H,0,1.511727033,-1.604217119,-1.059614671\I
 ,0,2.7590700193,0.986925507,-0.0749136851\\Version=IA64L-G03RevD.01\St
 ate=1-A\HF=-1404.3708378\RMSD=3.131e-09\Thermal=0.\Dipole=1.797333,0.0
 122093,1.4190191\PG=C01 [X(C3H13I1N1O5P1S1)]\\@


 DO NOT LET SELFISH MEN OR GREEDY INTERESTS SKIN YOUR COUNTRY OF ITS
 BEAUTY, ITS RICHES, OR ITS ROMANCE. -- THEODORE ROOSEVELT
 Job cpu time:  0 days  2 hours 21 minutes 36.6 seconds.
 File lengths (MBytes):  RWF=   1362 Int=      0 D2E=      0 Chk=     23 Scr=      1
 Normal termination of Gaussian 03 at Sat Aug  2 19:21:56 2008.
