 Entering Gaussian System, Link 0=/usr/local/Chem-Apps/g03_d01/g03/g03
 Initial command:
 /usr/local/Chem-Apps/g03_d01/g03/l1.exe /scratch/LSF_69107/Gau-8151.inp -scrdir=/scratch/LSF_69107/
 Entering Link 1 = /usr/local/Chem-Apps/g03_d01/g03/l1.exe PID=      8154.
  
 Copyright (c) 1988,1990,1992,1993,1995,1998,2003,2004, Gaussian, Inc.
                  All Rights Reserved.
  
 This is the Gaussian(R) 03 program.  It is based on the
 the Gaussian(R) 98 system (copyright 1998, Gaussian, Inc.),
 the Gaussian(R) 94 system (copyright 1995, Gaussian, Inc.),
 the Gaussian 92(TM) system (copyright 1992, Gaussian, Inc.),
 the Gaussian 90(TM) system (copyright 1990, Gaussian, Inc.),
 the Gaussian 88(TM) system (copyright 1988, Gaussian, Inc.),
 the Gaussian 86(TM) system (copyright 1986, Carnegie Mellon
 University), and the Gaussian 82(TM) system (copyright 1983,
 Carnegie Mellon University). Gaussian is a federally registered
 trademark of Gaussian, Inc.
  
 This software contains proprietary and confidential information,
 including trade secrets, belonging to Gaussian, Inc.
  
 This software is provided under written license and may be
 used, copied, transmitted, or stored only in accord with that
 written license.
  
 The following legend is applicable only to US Government
 contracts under FAR:
  
                    RESTRICTED RIGHTS LEGEND
  
 Use, reproduction and disclosure by the US Government is
 subject to restrictions as set forth in subparagraphs (a)
 and (c) of the Commercial Computer Software - Restricted
 Rights clause in FAR 52.227-19.
  
 Gaussian, Inc.
 340 Quinnipiac St., Bldg. 40, Wallingford CT 06492
  
  
 ---------------------------------------------------------------
 Warning -- This program may not be used in any manner that
 competes with the business of Gaussian, Inc. or will provide
 assistance to any competitor of Gaussian, Inc.  The licensee
 of this program is prohibited from giving any competitor of
 Gaussian, Inc. access to this program.  By using this program,
 the user acknowledges that Gaussian, Inc. is engaged in the
 business of creating and licensing software in the field of
 computational chemistry and represents and warrants to the
 licensee that it is not a competitor of Gaussian, Inc. and that
 it will not use this program in any manner prohibited above.
 ---------------------------------------------------------------
  

 Cite this work as:
 Gaussian 03, Revision D.01,
 M. J. Frisch, G. W. Trucks, H. B. Schlegel, G. E. Scuseria, 
 M. A. Robb, J. R. Cheeseman, J. A. Montgomery, Jr., T. Vreven, 
 K. N. Kudin, J. C. Burant, J. M. Millam, S. S. Iyengar, J. Tomasi, 
 V. Barone, B. Mennucci, M. Cossi, G. Scalmani, N. Rega, 
 G. A. Petersson, H. Nakatsuji, M. Hada, M. Ehara, K. Toyota, 
 R. Fukuda, J. Hasegawa, M. Ishida, T. Nakajima, Y. Honda, O. Kitao, 
 H. Nakai, M. Klene, X. Li, J. E. Knox, H. P. Hratchian, J. B. Cross, 
 V. Bakken, C. Adamo, J. Jaramillo, R. Gomperts, R. E. Stratmann, 
 O. Yazyev, A. J. Austin, R. Cammi, C. Pomelli, J. W. Ochterski, 
 P. Y. Ayala, K. Morokuma, G. A. Voth, P. Salvador, J. J. Dannenberg, 
 V. G. Zakrzewski, S. Dapprich, A. D. Daniels, M. C. Strain, 
 O. Farkas, D. K. Malick, A. D. Rabuck, K. Raghavachari, 
 J. B. Foresman, J. V. Ortiz, Q. Cui, A. G. Baboul, S. Clifford, 
 J. Cioslowski, B. B. Stefanov, G. Liu, A. Liashenko, P. Piskorz, 
 I. Komaromi, R. L. Martin, D. J. Fox, T. Keith, M. A. Al-Laham, 
 C. Y. Peng, A. Nanayakkara, M. Challacombe, P. M. W. Gill, 
 B. Johnson, W. Chen, M. W. Wong, C. Gonzalez, and J. A. Pople, 
 Gaussian, Inc., Wallingford CT, 2004.
 
 ******************************************
 Gaussian 03:  IA64L-G03RevD.01 13-Oct-2005
                 2-Aug-2008 
 ******************************************
 %Mem=4GB
 %NProcShared=16
 Will use up to   16 processors via shared memory.
 %Chk=molecule_9.chk
 Default route:  MaxDisk=64GB Cachesize=589840
 ----------------------------------------------------------------------
 #p opt=gdiis b3lyp/Gen scf=tight pseudo=read integral=(grid=ultrafine)
 ----------------------------------------------------------------------
 1/4=589840,14=-1,18=20,19=11,26=3,38=1/1,3;
 2/4=589840,9=110,17=6,18=5,40=1/2;
 3/4=589840,5=7,11=2,16=1,17=8,25=1,30=1,74=-5,75=5/1,2,3;
 4/4=589840/1;
 5/4=589840,5=2,32=2,38=5/2;
 6/4=589840,7=2,8=2,9=2,10=2,28=1/1;
 7/4=589840/1,2,3,16;
 1/4=589840,14=-1,18=20,19=11/3(3);
 2/4=589840,9=110/2;
 6/4=589840,7=2,8=2,9=2,10=2,19=2,28=1/1;
 99/4=589840/99;
 2/4=589840,9=110/2;
 3/4=589840,5=7,6=1,11=2,16=1,17=8,25=1,30=1,74=-5,75=5,82=7/1,2,3;
 4/4=589840,5=5,16=3/1;
 5/4=589840,5=2,32=2,38=5/2;
 7/4=589840/1,2,3,16;
 1/4=589840,14=-1,18=20,19=11/3(-5);
 2/4=589840,9=110/2;
 6/4=589840,7=2,8=2,9=2,10=2,19=2,28=1/1;
 99/4=589840,9=1/99;
 Leave Link    1 at Sat Aug  2 15:18:02 2008, MaxMem=  536870912 cpu:       1.9
 (Enter /usr/local/Chem-Apps/g03_d01/g03/l101.exe)
 ---------------------
 Molecule 9, geometry.
 ---------------------
 Symbolic Z-matrix:
 Charge = -1 Multiplicity = 1
 C                    -2.14761  -0.05419  -0.04993 
 H                    -1.93302   0.16331  -1.11045 
 H                    -2.36797   0.91485   0.4387 
 N                    -0.96467  -0.72936   0.47211 
 H                    -1.0126   -0.82134   1.48654 
 P                     0.60868   0.0288    0.11489 
 O                     1.58972  -0.81643   0.99552 
 O                     0.5012    1.53561   0.55051 
 C                    -3.3448   -0.95909   0.02827 
 H                    -3.19665  -1.94772  -0.42047 
 C                    -4.52204  -0.66703   0.60347 
 H                    -5.34931  -1.38141   0.61895 
 H                    -4.69391   0.30114   1.08179 
 O                     1.86159   1.18026   3.02726 
 H                     1.98621   0.32411   2.56515 
 H                     1.36383   1.62432   2.30646 
 O                     2.70181  -2.83497  -0.5125 
 H                     2.36345  -2.18921   0.16098 
 H                     2.3332   -2.41233  -1.30629 
 O                     0.12739   3.20112  -1.59972 
 H                     0.24058   2.73688  -0.72909 
 H                     0.3202    2.44486  -2.18015 
 S                     0.83489  -0.19278  -1.92063 
 I                     3.07896   0.13446  -2.49737 
 
                    Isotopes and Nuclear Properties:
 (Nuclear quadrupole moments (NQMom) in fm**2, nuclear magnetic moments (NMagM)
  in nuclear magnetons)

  Atom         1           2           3           4           5           6           7           8           9          10
 IAtWgt=          12           1           1          14           1          31          16          16          12           1
 AtmWgt=  12.0000000   1.0078250   1.0078250  14.0030740   1.0078250  30.9737634  15.9949146  15.9949146  12.0000000   1.0078250
 NucSpn=           0           1           1           2           1           1           0           0           0           1
 AtZEff=   0.0000000   0.0000000   0.0000000   0.0000000   0.0000000   0.0000000   0.0000000   0.0000000   0.0000000   0.0000000
 NQMom=    0.0000000   0.0000000   0.0000000   2.0440000   0.0000000   0.0000000   0.0000000   0.0000000   0.0000000   0.0000000
 NMagM=    0.0000000   2.7928460   2.7928460   0.4037610   2.7928460   1.1316000   0.0000000   0.0000000   0.0000000   2.7928460

  Atom        11          12          13          14          15          16          17          18          19          20
 IAtWgt=          12           1           1          16           1           1          16           1           1          16
 AtmWgt=  12.0000000   1.0078250   1.0078250  15.9949146   1.0078250   1.0078250  15.9949146   1.0078250   1.0078250  15.9949146
 NucSpn=           0           1           1           0           1           1           0           1           1           0
 AtZEff=   0.0000000   0.0000000   0.0000000   0.0000000   0.0000000   0.0000000   0.0000000   0.0000000   0.0000000   0.0000000
 NQMom=    0.0000000   0.0000000   0.0000000   0.0000000   0.0000000   0.0000000   0.0000000   0.0000000   0.0000000   0.0000000
 NMagM=    0.0000000   2.7928460   2.7928460   0.0000000   2.7928460   2.7928460   0.0000000   2.7928460   2.7928460   0.0000000

  Atom        21          22          23          24
 IAtWgt=           1           1          32         127
 AtmWgt=   1.0078250   1.0078250  31.9720718 126.9004000
 NucSpn=           1           1           0           5
 AtZEff=   0.0000000   0.0000000   0.0000000   0.0000000
 NQMom=    0.0000000   0.0000000   0.0000000 -71.0000000
 NMagM=    2.7928460   2.7928460   0.0000000   2.8132800
 Leave Link  101 at Sat Aug  2 15:18:03 2008, MaxMem=  536870912 cpu:       1.0
 (Enter /usr/local/Chem-Apps/g03_d01/g03/l103.exe)

 GradGradGradGradGradGradGradGradGradGradGradGradGradGradGradGradGradGrad
 Berny optimization.
 Initialization pass.
                           ----------------------------
                           !    Initial Parameters    !
                           ! (Angstroms and Degrees)  !
 --------------------------                            --------------------------
 ! Name  Definition              Value          Derivative Info.                !
 --------------------------------------------------------------------------------
 ! R1    R(1,2)                  1.1037         estimate D2E/DX2                !
 ! R2    R(1,3)                  1.1074         estimate D2E/DX2                !
 ! R3    R(1,4)                  1.4587         estimate D2E/DX2                !
 ! R4    R(1,9)                  1.5027         estimate D2E/DX2                !
 ! R5    R(4,5)                  1.0197         estimate D2E/DX2                !
 ! R6    R(4,6)                  1.7826         estimate D2E/DX2                !
 ! R7    R(6,7)                  1.566          estimate D2E/DX2                !
 ! R8    R(6,8)                  1.5722         estimate D2E/DX2                !
 ! R9    R(6,23)                 2.06           estimate D2E/DX2                !
 ! R10   R(7,15)                 1.9803         estimate D2E/DX2                !
 ! R11   R(7,18)                 1.7832         estimate D2E/DX2                !
 ! R12   R(8,16)                 1.9584         estimate D2E/DX2                !
 ! R13   R(8,21)                 1.7744         estimate D2E/DX2                !
 ! R14   R(9,10)                 1.0958         estimate D2E/DX2                !
 ! R15   R(9,11)                 1.3424         estimate D2E/DX2                !
 ! R16   R(11,12)                1.0931         estimate D2E/DX2                !
 ! R17   R(11,13)                1.0935         estimate D2E/DX2                !
 ! R18   R(14,15)                0.9809         estimate D2E/DX2                !
 ! R19   R(14,16)                0.9821         estimate D2E/DX2                !
 ! R20   R(17,18)                0.9925         estimate D2E/DX2                !
 ! R21   R(17,19)                0.9719         estimate D2E/DX2                !
 ! R22   R(20,21)                0.9931         estimate D2E/DX2                !
 ! R23   R(20,22)                0.9726         estimate D2E/DX2                !
 ! R24   R(23,24)                2.34           estimate D2E/DX2                !
 ! A1    A(2,1,3)              106.8723         estimate D2E/DX2                !
 ! A2    A(2,1,4)              106.1073         estimate D2E/DX2                !
 ! A3    A(2,1,9)              108.8788         estimate D2E/DX2                !
 ! A4    A(3,1,4)              114.11           estimate D2E/DX2                !
 ! A5    A(3,1,9)              110.2085         estimate D2E/DX2                !
 ! A6    A(4,1,9)              110.4098         estimate D2E/DX2                !
 ! A7    A(1,4,5)              111.0797         estimate D2E/DX2                !
 ! A8    A(1,4,6)              116.5632         estimate D2E/DX2                !
 ! A9    A(5,4,6)              106.212          estimate D2E/DX2                !
 ! A10   A(4,6,7)              102.1619         estimate D2E/DX2                !
 ! A11   A(4,6,8)              106.9629         estimate D2E/DX2                !
 ! A12   A(4,6,23)             104.4287         estimate D2E/DX2                !
 ! A13   A(7,6,8)              113.8471         estimate D2E/DX2                !
 ! A14   A(7,6,23)             115.3925         estimate D2E/DX2                !
 ! A15   A(8,6,23)             112.6055         estimate D2E/DX2                !
 ! A16   A(6,7,15)             105.0877         estimate D2E/DX2                !
 ! A17   A(6,7,18)             115.0975         estimate D2E/DX2                !
 ! A18   A(15,7,18)            136.6738         estimate D2E/DX2                !
 ! A19   A(6,8,16)             105.173          estimate D2E/DX2                !
 ! A20   A(6,8,21)             117.3279         estimate D2E/DX2                !
 ! A21   A(16,8,21)            132.8939         estimate D2E/DX2                !
 ! A22   A(1,9,10)             114.4734         estimate D2E/DX2                !
 ! A23   A(1,9,11)             126.1528         estimate D2E/DX2                !
 ! A24   A(10,9,11)            119.3624         estimate D2E/DX2                !
 ! A25   A(9,11,12)            121.8407         estimate D2E/DX2                !
 ! A26   A(9,11,13)            121.1923         estimate D2E/DX2                !
 ! A27   A(12,11,13)           116.9668         estimate D2E/DX2                !
 ! A28   A(15,14,16)            96.5045         estimate D2E/DX2                !
 ! A29   A(7,15,14)            148.2865         estimate D2E/DX2                !
 ! A30   A(8,16,14)            149.4111         estimate D2E/DX2                !
 ! A31   A(18,17,19)            98.162          estimate D2E/DX2                !
 ! A32   A(7,18,17)            165.1066         estimate D2E/DX2                !
 ! A33   A(21,20,22)            97.8795         estimate D2E/DX2                !
 ! A34   A(8,21,20)            164.8869         estimate D2E/DX2                !
 ! A35   A(6,23,24)            109.5            estimate D2E/DX2                !
 ! D1    D(2,1,4,5)            170.0852         estimate D2E/DX2                !
 ! D2    D(2,1,4,6)             48.2659         estimate D2E/DX2                !
 ! D3    D(3,1,4,5)             52.6847         estimate D2E/DX2                !
 ! D4    D(3,1,4,6)            -69.1346         estimate D2E/DX2                !
 ! D5    D(9,1,4,5)            -72.0882         estimate D2E/DX2                !
 ! D6    D(9,1,4,6)            166.0925         estimate D2E/DX2                !
 ! D7    D(2,1,9,10)            64.1093         estimate D2E/DX2                !
 ! D8    D(2,1,9,11)          -117.1377         estimate D2E/DX2                !
 ! D9    D(3,1,9,10)          -178.9712         estimate D2E/DX2                !
 ! D10   D(3,1,9,11)            -0.2182         estimate D2E/DX2                !
 ! D11   D(4,1,9,10)           -52.0005         estimate D2E/DX2                !
 ! D12   D(4,1,9,11)           126.7525         estimate D2E/DX2                !
 ! D13   D(1,4,6,7)            171.5659         estimate D2E/DX2                !
 ! D14   D(1,4,6,8)             51.6897         estimate D2E/DX2                !
 ! D15   D(1,4,6,23)           -67.8769         estimate D2E/DX2                !
 ! D16   D(5,4,6,7)             47.224          estimate D2E/DX2                !
 ! D17   D(5,4,6,8)            -72.6522         estimate D2E/DX2                !
 ! D18   D(5,4,6,23)           167.7812         estimate D2E/DX2                !
 ! D19   D(4,6,7,15)          -102.7298         estimate D2E/DX2                !
 ! D20   D(4,6,7,18)            93.8845         estimate D2E/DX2                !
 ! D21   D(8,6,7,15)            12.2041         estimate D2E/DX2                !
 ! D22   D(8,6,7,18)          -151.1816         estimate D2E/DX2                !
 ! D23   D(23,6,7,15)          144.6605         estimate D2E/DX2                !
 ! D24   D(23,6,7,18)          -18.7253         estimate D2E/DX2                !
 ! D25   D(4,6,8,16)            99.4767         estimate D2E/DX2                !
 ! D26   D(4,6,8,21)          -101.4625         estimate D2E/DX2                !
 ! D27   D(7,6,8,16)           -12.5877         estimate D2E/DX2                !
 ! D28   D(7,6,8,21)           146.4731         estimate D2E/DX2                !
 ! D29   D(23,6,8,16)         -146.3693         estimate D2E/DX2                !
 ! D30   D(23,6,8,21)           12.6915         estimate D2E/DX2                !
 ! D31   D(4,6,23,24)         -162.804          estimate D2E/DX2                !
 ! D32   D(7,6,23,24)          -51.5238         estimate D2E/DX2                !
 ! D33   D(8,6,23,24)           81.5091         estimate D2E/DX2                !
 ! D34   D(6,7,15,14)           -2.1163         estimate D2E/DX2                !
 ! D35   D(18,7,15,14)         155.7129         estimate D2E/DX2                !
 ! D36   D(6,7,18,17)           13.0415         estimate D2E/DX2                !
 ! D37   D(15,7,18,17)        -143.2336         estimate D2E/DX2                !
 ! D38   D(6,8,16,14)            3.9892         estimate D2E/DX2                !
 ! D39   D(21,8,16,14)        -150.3294         estimate D2E/DX2                !
 ! D40   D(6,8,21,20)           -6.1359         estimate D2E/DX2                !
 ! D41   D(16,8,21,20)         145.7776         estimate D2E/DX2                !
 ! D42   D(1,9,11,12)          179.9464         estimate D2E/DX2                !
 ! D43   D(1,9,11,13)           -0.2189         estimate D2E/DX2                !
 ! D44   D(10,9,11,12)          -1.3559         estimate D2E/DX2                !
 ! D45   D(10,9,11,13)         178.4788         estimate D2E/DX2                !
 ! D46   D(16,14,15,7)          -6.2681         estimate D2E/DX2                !
 ! D47   D(15,14,16,8)           5.2084         estimate D2E/DX2                !
 ! D48   D(19,17,18,7)          -1.7466         estimate D2E/DX2                !
 ! D49   D(22,20,21,8)          -4.3703         estimate D2E/DX2                !
 --------------------------------------------------------------------------------
 Trust Radius=3.00D-01 FncErr=1.00D-07 GrdErr=1.00D-06
 Number of steps in this run= 118 maximum allowed number of steps= 144.
 GradGradGradGradGradGradGradGradGradGradGradGradGradGradGradGradGradGrad

 Leave Link  103 at Sat Aug  2 15:18:03 2008, MaxMem=  536870912 cpu:       0.6
 (Enter /usr/local/Chem-Apps/g03_d01/g03/l202.exe)
                          Input orientation:                          
 ---------------------------------------------------------------------
 Center     Atomic     Atomic              Coordinates (Angstroms)
 Number     Number      Type              X           Y           Z
 ---------------------------------------------------------------------
    1          6             0       -2.147606   -0.054187   -0.049930
    2          1             0       -1.933022    0.163305   -1.110448
    3          1             0       -2.367965    0.914854    0.438703
    4          7             0       -0.964672   -0.729355    0.472106
    5          1             0       -1.012599   -0.821338    1.486544
    6         15             0        0.608679    0.028799    0.114888
    7          8             0        1.589717   -0.816425    0.995524
    8          8             0        0.501203    1.535611    0.550511
    9          6             0       -3.344801   -0.959086    0.028269
   10          1             0       -3.196653   -1.947718   -0.420466
   11          6             0       -4.522036   -0.667027    0.603470
   12          1             0       -5.349311   -1.381406    0.618946
   13          1             0       -4.693912    0.301137    1.081786
   14          8             0        1.861592    1.180264    3.027257
   15          1             0        1.986210    0.324110    2.565153
   16          1             0        1.363834    1.624317    2.306456
   17          8             0        2.701807   -2.834974   -0.512496
   18          1             0        2.363450   -2.189208    0.160975
   19          1             0        2.333199   -2.412332   -1.306293
   20          8             0        0.127394    3.201123   -1.599717
   21          1             0        0.240579    2.736877   -0.729088
   22          1             0        0.320201    2.444859   -2.180147
   23         16             0        0.834886   -0.192783   -1.920630
   24         53             0        3.078963    0.134456   -2.497371
 ---------------------------------------------------------------------
                    Distance matrix (angstroms):
                    1          2          3          4          5
     1  C    0.000000
     2  H    1.103652   0.000000
     3  H    1.107412   1.775914   0.000000
     4  N    1.458666   2.058888   2.161890   0.000000
     5  H    2.058522   2.925930   2.439129   1.019727   0.000000
     6  P    2.762455   2.824851   3.122557   1.782648   2.287513
     7  O    3.954942   4.219559   4.355528   2.608918   2.648240
     8  O    3.147090   3.250763   2.937680   2.699075   2.953466
     9  C    1.502742   2.132969   2.152746   2.432032   2.754035
    10  H    2.196191   2.555241   3.101486   2.694964   3.110548
    11  C    2.537799   3.214025   2.677595   3.560334   3.622124
    12  H    3.529847   4.128918   3.767456   4.435289   4.457967
    13  H    2.809041   3.528087   2.490027   3.916740   3.869864
    14  O    5.202559   5.705603   4.965904   4.261832   3.826380
    15  H    4.906139   5.375526   4.881558   3.768068   3.386488
    16  H    4.549741   4.967801   4.232985   3.785043   3.507266
    17  O    5.609238   5.552375   6.377192   4.341214   4.674153
    18  H    4.995240   5.060682   5.665565   3.647516   3.876327
    19  H    5.216983   4.987274   6.017983   4.107441   4.639565
    20  O    4.263157   3.703112   3.950823   4.575338   5.196613
    21  H    3.735602   3.390170   3.389396   3.861381   4.374971
    22  H    4.107691   3.380349   4.052842   4.331395   5.088126
    23  S    3.523348   2.905943   4.129354   3.041628   3.926463
    24  I    5.774304   5.200422   6.236873   5.090673   5.790164
                    6          7          8          9         10
     6  P    0.000000
     7  O    1.566001   0.000000
     8  O    1.572196   2.629634   0.000000
     9  C    4.075957   5.030448   4.613892   0.000000
    10  H    4.321316   5.118026   5.172090   1.095766   0.000000
    11  C    5.200685   6.126137   5.485194   1.342400   2.108377
    12  H    6.143321   6.972168   6.537751   2.131974   2.456628
    13  H    5.396900   6.382819   5.366134   2.125597   3.091261
    14  O    3.373063   2.861577   2.848017   6.377874   6.874366
    15  H    2.826411   1.980344   2.780605   6.041693   6.398218
    16  H    2.814055   2.779710   1.958403   5.833982   6.402623
    17  O    3.602220   2.754162   5.007460   6.353963   5.965528
    18  H    2.828586   1.783162   4.182580   5.840800   5.595635
    19  H    3.309508   2.897938   4.731827   6.011045   5.619592
    20  O    3.638014   5.001435   2.745386   5.658075   6.241032
    21  H    2.860329   4.173777   1.774356   5.204679   5.818526
    22  H    3.344810   4.725731   2.883745   5.467740   5.895716
    23  S    2.060000   3.076142   3.034012   4.674955   4.645815
    24  I    3.596855   3.914377   4.230564   6.988522   6.930537
                   11         12         13         14         15
    11  C    0.000000
    12  H    1.093143   0.000000
    13  H    1.093467   1.864060   0.000000
    14  O    7.073750   8.022421   6.894371   0.000000
    15  H    6.869339   7.778584   6.842875   0.980851   0.000000
    16  H    6.541703   7.546415   6.320357   0.982090   1.464518
    17  O    7.624256   8.259148   8.189847   5.418298   4.468088
    18  H    7.065604   7.768460   7.540296   4.452053   3.498450
    19  H    7.327178   7.986884   7.902286   5.648789   4.753589
    20  O    6.436910   7.477723   6.232605   5.338558   5.392452
    21  H    6.003730   7.072787   5.793211   4.377311   4.440799
    22  H    6.393717   7.390439   6.354296   5.576033   5.458116
    23  S    5.940757   6.790181   6.310789   5.236503   4.659933
    24  I    8.248199   9.112907   8.558957   5.753018   5.182589
                   16         17         18         19         20
    16  H    0.000000
    17  O    5.442604   0.000000
    18  H    4.488351   0.992503   0.000000
    19  H    5.503286   0.971911   1.484444   0.000000
    20  O    4.390135   6.651625   6.095544   6.038423   0.000000
    21  H    3.422575   6.095086   5.437381   5.588075   0.993142
    22  H    4.678896   6.027416   5.579453   5.329924   0.972630
    23  S    4.631403   3.528372   3.264245   2.747499   3.481685
    24  I    5.313954   3.591586   3.602524   2.908773   4.349941
                   21         22         23         24
    21  H    0.000000
    22  H    1.482291   0.000000
    23  S    3.218056   2.699890   0.000000
    24  I    4.237434   3.612390   2.340000   0.000000
 Stoichiometry    C3H12INO5PS(1-)
 Framework group  C1[X(C3H12INO5PS)]
 Deg. of freedom    66
 Full point group                 C1
 Largest Abelian subgroup         C1      NOp   1
 Largest concise Abelian subgroup C1      NOp   1
                         Standard orientation:                         
 ---------------------------------------------------------------------
 Center     Atomic     Atomic              Coordinates (Angstroms)
 Number     Number      Type              X           Y           Z
 ---------------------------------------------------------------------
    1          6             0        3.148455   -0.820415   -0.088197
    2          1             0        2.450013   -1.666042    0.034859
    3          1             0        3.548314   -0.584870    0.917284
    4          7             0        2.374247    0.259692   -0.689593
    5          1             0        2.900837    1.132930   -0.688733
    6         15             0        0.800320    0.626888    0.062573
    7          8             0        0.378634    1.940129   -0.679005
    8          8             0        1.061226    0.821278    1.600735
    9          6             0        4.262937   -1.239712   -1.004906
   10          1             0        3.946072   -1.472912   -2.027607
   11          6             0        5.563749   -1.322403   -0.683836
   12          1             0        6.317948   -1.637862   -1.409529
   13          1             0        5.916088   -1.072754    0.320755
   14          8             0        1.051012    3.667531    1.501043
   15          1             0        0.744923    3.399511    0.608550
   16          1             0        1.134386    2.760085    1.867227
   17          8             0       -1.261562    1.331041   -2.806016
   18          1             0       -0.661397    1.701352   -2.107636
   19          1             0       -1.325881    0.423051   -2.465384
   20          8             0        0.323563   -1.388154    3.053803
   21          1             0        0.650155   -0.530629    2.673911
   22          1             0       -0.101407   -1.736298    2.251179
   23         16             0       -0.359741   -1.026891   -0.341004
   24         53             0       -2.616275   -0.494073   -0.025153
 ---------------------------------------------------------------------
 Rotational constants (GHZ):      0.5450778      0.2223383      0.2145354
 Leave Link  202 at Sat Aug  2 15:18:03 2008, MaxMem=  536870912 cpu:       0.6
 (Enter /usr/local/Chem-Apps/g03_d01/g03/l301.exe)
 General basis read from cards:  (5D, 7F)
 Centers:   1  9 11  2  3  5 10 12 13 15 16 18 19 21 22  4  7  8 14 17
 Centers:  20  6 23
 aug-cc-pVDZ
 ****
 Centers:  24
 S 1 1.00
     Exponent=  6.8030000000D-01 Coefficients=  1.0000000000D+00
 S 1 1.00
     Exponent=  5.2080000000D-01 Coefficients=  1.0000000000D+00
 S 1 1.00
     Exponent=  1.1430000000D-01 Coefficients=  1.0000000000D+00
 P 1 1.00
     Exponent=  1.1250000000D+00 Coefficients=  1.0000000000D+00
 P 1 1.00
     Exponent=  3.5080000000D-01 Coefficients=  1.0000000000D+00
 P 1 1.00
     Exponent=  1.1660000000D-01 Coefficients=  1.0000000000D+00
 D 1 1.00
     Exponent=  3.9502000000D+00 Coefficients=  1.0000000000D+00
 D 1 1.00
     Exponent=  2.5742000000D+00 Coefficients=  1.0000000000D+00
 D 1 1.00
     Exponent=  1.3071000000D+00 Coefficients=  1.0000000000D+00
 D 1 1.00
     Exponent=  5.1160000000D-01 Coefficients=  1.0000000000D+00
 ****
 ===================================================================================================================================
 Pseudopotential Parameters 
 ===================================================================================================================================
  Center     Atomic      Valence      Angular      Power                                                       Coordinates
  Number     Number     Electrons     Momentum     of R      Exponent        Coefficient                X           Y           Z
 ===================================================================================================================================
    1          6                                                                                    5.949718 -1.550360 -0.166669
                                   No pseudopotential on this center.
    2          1                                                                                    4.629855 -3.148362  0.065873
                                   No pseudopotential on this center.
    3          1                                                                                    6.705341 -1.105244  1.733415
                                   No pseudopotential on this center.
    4          7                                                                                    4.486677  0.490747 -1.303142
                                   No pseudopotential on this center.
    5          1                                                                                    5.481788  2.140927 -1.301517
                                   No pseudopotential on this center.
    6         15                                                                                    1.512385  1.184646  0.118246
                                   No pseudopotential on this center.
    7          8                                                                                    0.715516  3.666312 -1.283134
                                   No pseudopotential on this center.
    8          8                                                                                    2.005426  1.551991  3.024951
                                   No pseudopotential on this center.
    9          6                                                                                    8.055783 -2.342716 -1.898997
                                   No pseudopotential on this center.
   10          1                                                                                    7.456996 -2.783401 -3.831623
                                   No pseudopotential on this center.
   11          6                                                                                   10.513962 -2.498979 -1.292262
                                   No pseudopotential on this center.
   12          1                                                                                   11.939191 -3.095110 -2.663624
                                   No pseudopotential on this center.
   13          1                                                                                   11.179787 -2.027212  0.606139
                                   No pseudopotential on this center.
   14          8                                                                                    1.986125  6.930630  2.836561
                                   No pseudopotential on this center.
   15          1                                                                                    1.407700  6.424145  1.149993
                                   No pseudopotential on this center.
   16          1                                                                                    2.143680  5.215805  3.528548
                                   No pseudopotential on this center.
   17          8                                                                                   -2.384006  2.515302 -5.302602
                                   No pseudopotential on this center.
   18          1                                                                                   -1.249860  3.215090 -3.982856
                                   No pseudopotential on this center.
   19          1                                                                                   -2.505552  0.799451 -4.658900
                                   No pseudopotential on this center.
   20          8                                                                                    0.611445 -2.623231  5.770851
                                   No pseudopotential on this center.
   21          1                                                                                    1.228615 -1.002743  5.052960
                                   No pseudopotential on this center.
   22          1                                                                                   -0.191632 -3.281127  4.254111
                                   No pseudopotential on this center.
   23         16                                                                                   -0.679812 -1.940543 -0.644405
                                   No pseudopotential on this center.
   24         53           17                                                                      -4.944042 -0.933663 -0.047532
                                      F and up 
                                                     2        2.0065999       -2.60678697
                                                     2        5.4120002      -15.30154037
                                                     2       20.8878994      -73.32185364
                                                     1       63.8210983      -23.43061638
                                      S - F
                                                     2        1.5301000     -144.29801941
                                                     2        1.8566001      252.49822998
                                                     2        2.5843000     -200.15640259
                                                     2        3.7542000       85.98131561
                                                     1        1.1387000       32.24239349
                                                     0       12.4701004        6.45168209
                                      P - F
                                                     2        0.9111000       32.43734360
                                                     2        1.0657999     -101.57602692
                                                     2        1.3899000      169.25859070
                                                     2        1.7958000     -105.27653503
                                                     1        2.5479000       12.12060356
                                                     0        1.1725000        6.45733500
                                      D - F
                                                     2        0.8653000        3.41730189
                                                     2        0.8996000       -3.97894001
                                                     2        4.5872002      -37.31042862
                                                     2        5.5282001       77.44996643
                                                     1       22.2080002       18.01509857
                                                     0       19.1401005        6.86909294
 ===================================================================================================================================
 There are   401 symmetry adapted basis functions of A   symmetry.
 Integral buffers will be    131072 words long.
 Raffenetti 2 integral format.
 Two-electron integral symmetry is turned on.
   401 basis functions,   721 primitive gaussians,   427 cartesian basis functions
    63 alpha electrons       63 beta electrons
       nuclear repulsion energy      1131.1753842671 Hartrees.
 IExCor= 402 DFT=T Ex=B+HF Corr=LYP ExCW=0 ScaHFX=  0.200000
 ScaDFX=  0.800000  0.720000  1.000000  0.810000
 IRadAn=      5 IRanWt=     -1 IRanGd=            0 ICorTp=0
 NAtoms=   24 NActive=   24 NUniq=   24 SFac= 7.50D-01 NAtFMM=   80 NAOKFM=F Big=F
 Leave Link  301 at Sat Aug  2 15:18:03 2008, MaxMem=  536870912 cpu:       0.4
 (Enter /usr/local/Chem-Apps/g03_d01/g03/l302.exe)
 NPDir=0 NMtPBC=     1 NCelOv=     1 NCel=       1 NClECP=     1 NCelD=      1
         NCelK=      1 NCelE2=     1 NClLst=     1 CellRange=     0.0.
 One-electron integrals computed using PRISM.
   1 Symmetry operations used in ECPInt.
 ECPInt:  NShTT=   15051 NPrTT=   77353 LenC2=   14544 LenP2D=   49627.
 LDataN:  DoStor=F MaxTD1= 5 Len=  102
 LDataN:  DoStor=T MaxTD1= 5 Len=  102
 NBasis=   401 RedAO= T  NBF=   401
 NBsUse=   401 1.00D-06 NBFU=   401
 Precomputing XC quadrature grid using
 IXCGrd= 2 IRadAn=           5 IRanWt=          -1 IRanGd=           0.
 Defaulting to unpruned grid for atomic number  53.
 NRdTot=    2063 NPtTot=      582500 NUsed=      597038 NTot=      597070
 NSgBfM=   423   423   424   424.
 Leave Link  302 at Sat Aug  2 15:18:05 2008, MaxMem=  536870912 cpu:      24.3
 (Enter /usr/local/Chem-Apps/g03_d01/g03/l303.exe)
 DipDrv:  MaxL=1.
 Leave Link  303 at Sat Aug  2 15:18:05 2008, MaxMem=  536870912 cpu:       1.5
 (Enter /usr/local/Chem-Apps/g03_d01/g03/l401.exe)
 Harris functional with IExCor=  402 diagonalized for initial guess.
 ExpMin= 2.97D-02 ExpMax= 1.11D+05 ExpMxC= 3.24D+03 IAcc=3 IRadAn=         5 AccDes= 0.00D+00
 HarFok:  IExCor= 402 AccDes= 0.00D+00 IRadAn=         5 IDoV=1
 ScaDFX=  1.000000  1.000000  1.000000  1.000000
 Defaulting to unpruned grid for atomic number  53.
 Defaulting to unpruned grid for atomic number  53.
 Defaulting to unpruned grid for atomic number  53.
 Defaulting to unpruned grid for atomic number  53.
 Defaulting to unpruned grid for atomic number  53.
 Defaulting to unpruned grid for atomic number  53.
 Defaulting to unpruned grid for atomic number  53.
 Defaulting to unpruned grid for atomic number  53.
 Defaulting to unpruned grid for atomic number  53.
 Defaulting to unpruned grid for atomic number  53.
 Defaulting to unpruned grid for atomic number  53.
 Defaulting to unpruned grid for atomic number  53.
 Defaulting to unpruned grid for atomic number  53.
 Defaulting to unpruned grid for atomic number  53.
 Defaulting to unpruned grid for atomic number  53.
 Defaulting to unpruned grid for atomic number  53.
 Harris En=  1636.09383035364    
 Initial guess orbital symmetries:
       Occupied  (A) (A) (A) (A) (A) (A) (A) (A) (A) (A) (A) (A)
                 (A) (A) (A) (A) (A) (A) (A) (A) (A) (A) (A) (A)
                 (A) (A) (A) (A) (A) (A) (A) (A) (A) (A) (A) (A)
                 (A) (A) (A) (A) (A) (A) (A) (A) (A) (A) (A) (A)
                 (A) (A) (A) (A) (A) (A) (A) (A) (A) (A) (A) (A)
                 (A) (A) (A)
       Virtual   (A) (A) (A) (A) (A) (A) (A) (A) (A) (A) (A) (A)
                 (A) (A) (A) (A) (A) (A) (A) (A) (A) (A) (A) (A)
                 (A) (A) (A) (A) (A) (A) (A) (A) (A) (A) (A) (A)
                 (A) (A) (A) (A) (A) (A) (A) (A) (A) (A) (A) (A)
                 (A) (A) (A) (A) (A) (A) (A) (A) (A) (A) (A) (A)
                 (A) (A) (A) (A) (A) (A) (A) (A) (A) (A) (A) (A)
                 (A) (A) (A) (A) (A) (A) (A) (A) (A) (A) (A) (A)
                 (A) (A) (A) (A) (A) (A) (A) (A) (A) (A) (A) (A)
                 (A) (A) (A) (A) (A) (A) (A) (A) (A) (A) (A) (A)
                 (A) (A) (A) (A) (A) (A) (A) (A) (A) (A) (A) (A)
                 (A) (A) (A) (A) (A) (A) (A) (A) (A) (A) (A) (A)
                 (A) (A) (A) (A) (A) (A) (A) (A) (A) (A) (A) (A)
                 (A) (A) (A) (A) (A) (A) (A) (A) (A) (A) (A) (A)
                 (A) (A) (A) (A) (A) (A) (A) (A) (A) (A) (A) (A)
                 (A) (A) (A) (A) (A) (A) (A) (A) (A) (A) (A) (A)
                 (A) (A) (A) (A) (A) (A) (A) (A) (A) (A) (A) (A)
                 (A) (A) (A) (A) (A) (A) (A) (A) (A) (A) (A) (A)
                 (A) (A) (A) (A) (A) (A) (A) (A) (A) (A) (A) (A)
                 (A) (A) (A) (A) (A) (A) (A) (A) (A) (A) (A) (A)
                 (A) (A) (A) (A) (A) (A) (A) (A) (A) (A) (A) (A)
                 (A) (A) (A) (A) (A) (A) (A) (A) (A) (A) (A) (A)
                 (A) (A) (A) (A) (A) (A) (A) (A) (A) (A) (A) (A)
                 (A) (A) (A) (A) (A) (A) (A) (A) (A) (A) (A) (A)
                 (A) (A) (A) (A) (A) (A) (A) (A) (A) (A) (A) (A)
                 (A) (A) (A) (A) (A) (A) (A) (A) (A) (A) (A) (A)
                 (A) (A) (A) (A) (A) (A) (A) (A) (A) (A) (A) (A)
                 (A) (A) (A) (A) (A) (A) (A) (A) (A) (A) (A) (A)
                 (A) (A) (A) (A) (A) (A) (A) (A) (A) (A) (A) (A)
                 (A) (A)
 The electronic state of the initial guess is 1-A.
 Leave Link  401 at Sat Aug  2 15:18:09 2008, MaxMem=  536870912 cpu:      54.1
 (Enter /usr/local/Chem-Apps/g03_d01/g03/l502.exe)
 Closed shell SCF:
 Requested convergence on RMS density matrix=1.00D-08 within 128 cycles.
 Requested convergence on MAX density matrix=1.00D-06.
 Requested convergence on             energy=1.00D-06.
 No special actions if energy rises.
 Using DIIS extrapolation, IDIIS=  1040.
 Integral symmetry usage will be decided dynamically.
       597037 words used for storage of precomputed grid.
 IEnd=   1262099 IEndB=   1262099 NGot= 536870912 MDV= 535808210
 LenX= 535808210
 Fock matrices will be formed incrementally for  20 cycles.

 Cycle   1  Pass 1  IDiag  1:
 Petite list used in FoFDir.
 MinBra= 0 MaxBra= 2 Meth= 1.
 IRaf=       0 NMat=   1 IRICut=       1 DoRegI=T DoRafI=F ISym2E= 1 JSym2E=1.
 Defaulting to unpruned grid for atomic number  53.
 Defaulting to unpruned grid for atomic number  53.
 Defaulting to unpruned grid for atomic number  53.
 Defaulting to unpruned grid for atomic number  53.
 Defaulting to unpruned grid for atomic number  53.
 Defaulting to unpruned grid for atomic number  53.
 Defaulting to unpruned grid for atomic number  53.
 Defaulting to unpruned grid for atomic number  53.
 Defaulting to unpruned grid for atomic number  53.
 Defaulting to unpruned grid for atomic number  53.
 Defaulting to unpruned grid for atomic number  53.
 Defaulting to unpruned grid for atomic number  53.
 Defaulting to unpruned grid for atomic number  53.
 Defaulting to unpruned grid for atomic number  53.
 Defaulting to unpruned grid for atomic number  53.
 Defaulting to unpruned grid for atomic number  53.
 E= -1388.42475172470    
 DIIS: error= 8.07D-01 at cycle   1 NSaved=   1.
 NSaved= 1 IEnMin= 1 EnMin= -1388.42475172470     IErMin= 1 ErrMin= 8.07D-01
 ErrMax= 8.07D-01 EMaxC= 1.00D-01 BMatC= 8.21D+01 BMatP= 8.21D+01
 IDIUse=3 WtCom= 0.00D+00 WtEn= 1.00D+00
 Coeff-Com:  0.100D+01
 Coeff-En:   0.100D+01
 Coeff:      0.100D+01
 Gap=     0.305 Goal=   None    Shift=    0.000
 GapD=    0.305 DampG=1.000 DampE=0.250 DampFc=0.2500 IDamp=-1.
 Damping current iteration by 2.50D-01
 RMSDP=2.81D-02 MaxDP=3.87D+00              OVMax= 6.76D-01

 Cycle   2  Pass 1  IDiag  1:
 RMSU=  6.05D-03    CP:  9.10D-01
 E= -1392.89662452015     Delta-E=       -4.471872795455 Rises=F Damp=T
 DIIS: error= 5.80D-01 at cycle   2 NSaved=   2.
 NSaved= 2 IEnMin= 2 EnMin= -1392.89662452015     IErMin= 2 ErrMin= 5.80D-01
 ErrMax= 5.80D-01 EMaxC= 1.00D-01 BMatC= 3.91D+01 BMatP= 8.21D+01
 IDIUse=3 WtCom= 0.00D+00 WtEn= 1.00D+00
 Coeff-Com: -0.210D+01 0.310D+01
 Coeff-En:   0.000D+00 0.100D+01
 Coeff:      0.000D+00 0.100D+01
 Gap=    -0.006 Goal=   None    Shift=    0.000
 RMSDP=1.31D-02 MaxDP=2.04D+00 DE=-4.47D+00 OVMax= 6.93D-01

 Cycle   3  Pass 1  IDiag  1:
 RMSU=  8.08D-03    CP:  6.84D-01  1.84D+00
 E= -1402.70088953502     Delta-E=       -9.804265014869 Rises=F Damp=F
 DIIS: error= 2.21D-01 at cycle   3 NSaved=   3.
 NSaved= 3 IEnMin= 3 EnMin= -1402.70088953502     IErMin= 3 ErrMin= 2.21D-01
 ErrMax= 2.21D-01 EMaxC= 1.00D-01 BMatC= 2.61D+00 BMatP= 3.91D+01
 IDIUse=3 WtCom= 0.00D+00 WtEn= 1.00D+00
 Coeff-Com: -0.345D+00 0.642D+00 0.704D+00
 Coeff-En:   0.000D+00 0.000D+00 0.100D+01
 Coeff:      0.000D+00 0.000D+00 0.100D+01
 Gap=     0.138 Goal=   None    Shift=    0.000
 RMSDP=2.13D-02 MaxDP=4.28D+00 DE=-9.80D+00 OVMax= 8.09D-01

 Cycle   4  Pass 1  IDiag  1:
 RMSU=  1.32D-02    CP:  1.02D+00  5.82D-01  1.62D-01
 E= -1400.97452229966     Delta-E=        1.726367235361 Rises=F Damp=F
 DIIS: error= 1.00D-01 at cycle   4 NSaved=   4.
 NSaved= 4 IEnMin= 3 EnMin= -1402.70088953502     IErMin= 4 ErrMin= 1.00D-01
 ErrMax= 1.00D-01 EMaxC= 1.00D-01 BMatC= 2.44D+00 BMatP= 2.61D+00
 IDIUse=3 WtCom= 3.68D-04 WtEn= 1.00D+00
 Coeff-Com:  0.361D+00-0.449D+00 0.630D+00 0.458D+00
 Coeff-En:   0.000D+00 0.000D+00 0.735D+00 0.265D+00
 Coeff:      0.133D-03-0.165D-03 0.735D+00 0.265D+00
 Gap=     0.019 Goal=   None    Shift=    0.000
 RMSDP=1.07D-02 MaxDP=1.89D+00 DE= 1.73D+00 OVMax= 6.98D-01

 Cycle   5  Pass 1  IDiag  1:
 RMSU=  2.98D-03    CP:  8.61D-01  6.28D-01  6.84D-01  4.62D-01
 E= -1403.47848087624     Delta-E=       -2.503958576580 Rises=F Damp=F
 DIIS: error= 5.02D-02 at cycle   5 NSaved=   5.
 NSaved= 5 IEnMin= 5 EnMin= -1403.47848087624     IErMin= 5 ErrMin= 5.02D-02
 ErrMax= 5.02D-02 EMaxC= 1.00D-01 BMatC= 3.56D-01 BMatP= 2.44D+00
 IDIUse=3 WtCom= 4.98D-01 WtEn= 5.02D-01
 Coeff-Com: -0.404D+00 0.559D+00 0.752D-01 0.772D-01 0.693D+00
 Coeff-En:   0.000D+00 0.000D+00 0.000D+00 0.595D-01 0.941D+00
 Coeff:     -0.202D+00 0.279D+00 0.375D-01 0.683D-01 0.817D+00
 Gap=     0.129 Goal=   None    Shift=    0.000
 RMSDP=6.12D-03 MaxDP=1.07D+00 DE=-2.50D+00 OVMax= 1.37D-01

 Cycle   6  Pass 1  IDiag  1:
 RMSU=  1.83D-03    CP:  7.83D-01  1.27D+00  7.85D-01  2.88D-01  3.45D-01
 E= -1403.63781304550     Delta-E=       -0.159332169258 Rises=F Damp=F
 DIIS: error= 9.58D-03 at cycle   6 NSaved=   6.
 NSaved= 6 IEnMin= 6 EnMin= -1403.63781304550     IErMin= 6 ErrMin= 9.58D-03
 ErrMax= 9.58D-03 EMaxC= 1.00D-01 BMatC= 8.85D-02 BMatP= 3.56D-01
 IDIUse=3 WtCom= 9.04D-01 WtEn= 9.58D-02
 Coeff-Com: -0.114D+00 0.155D+00 0.577D-01 0.304D-01 0.449D+00 0.422D+00
 Coeff-En:   0.000D+00 0.000D+00 0.000D+00 0.000D+00 0.234D+00 0.766D+00
 Coeff:     -0.103D+00 0.140D+00 0.521D-01 0.275D-01 0.429D+00 0.455D+00
 Gap=     0.129 Goal=   None    Shift=    0.000
 RMSDP=1.94D-03 MaxDP=3.26D-01 DE=-1.59D-01 OVMax= 4.73D-02

 Cycle   7  Pass 1  IDiag  1:
 RMSU=  8.54D-04    CP:  8.10D-01  1.09D+00  7.54D-01  3.40D-01  4.84D-01
                    CP:  7.89D-01
 E= -1403.69759926917     Delta-E=       -0.059786223675 Rises=F Damp=F
 DIIS: error= 2.19D-03 at cycle   7 NSaved=   7.
 NSaved= 7 IEnMin= 7 EnMin= -1403.69759926917     IErMin= 7 ErrMin= 2.19D-03
 ErrMax= 2.19D-03 EMaxC= 1.00D-01 BMatC= 6.26D-03 BMatP= 8.85D-02
 IDIUse=3 WtCom= 9.78D-01 WtEn= 2.19D-02
 Coeff-Com: -0.626D-01 0.854D-01 0.919D-02 0.746D-02 0.140D+00 0.222D+00
 Coeff-Com:  0.599D+00
 Coeff-En:   0.000D+00 0.000D+00 0.000D+00 0.000D+00 0.000D+00 0.481D-01
 Coeff-En:   0.952D+00
 Coeff:     -0.612D-01 0.836D-01 0.899D-02 0.730D-02 0.137D+00 0.218D+00
 Coeff:      0.607D+00
 Gap=     0.125 Goal=   None    Shift=    0.000
 RMSDP=4.13D-04 MaxDP=4.83D-02 DE=-5.98D-02 OVMax= 1.25D-02

 Cycle   8  Pass 1  IDiag  1:
 RMSU=  3.33D-04    CP:  8.06D-01  1.09D+00  7.52D-01  3.39D-01  4.87D-01
                    CP:  8.20D-01  8.08D-01
 E= -1403.70211698888     Delta-E=       -0.004517719709 Rises=F Damp=F
 DIIS: error= 9.16D-04 at cycle   8 NSaved=   8.
 NSaved= 8 IEnMin= 8 EnMin= -1403.70211698888     IErMin= 8 ErrMin= 9.16D-04
 ErrMax= 9.16D-04 EMaxC= 1.00D-01 BMatC= 6.67D-04 BMatP= 6.26D-03
 IDIUse=3 WtCom= 9.91D-01 WtEn= 9.16D-03
 Coeff-Com: -0.286D-01 0.394D-01-0.437D-02 0.450D-03 0.678D-02 0.576D-01
 Coeff-Com:  0.360D+00 0.569D+00
 Coeff-En:   0.000D+00 0.000D+00 0.000D+00 0.000D+00 0.000D+00 0.000D+00
 Coeff-En:   0.000D+00 0.100D+01
 Coeff:     -0.284D-01 0.390D-01-0.433D-02 0.446D-03 0.672D-02 0.570D-01
 Coeff:      0.357D+00 0.573D+00
 Gap=     0.121 Goal=   None    Shift=    0.000
 RMSDP=2.47D-04 MaxDP=4.77D-02 DE=-4.52D-03 OVMax= 5.28D-03

 Cycle   9  Pass 1  IDiag  1:
 RMSU=  8.19D-05    CP:  8.05D-01  1.12D+00  7.55D-01  3.34D-01  4.63D-01
                    CP:  8.51D-01  8.91D-01  6.78D-01
 E= -1403.70280304211     Delta-E=       -0.000686053226 Rises=F Damp=F
 DIIS: error= 5.34D-04 at cycle   9 NSaved=   9.
 NSaved= 9 IEnMin= 9 EnMin= -1403.70280304211     IErMin= 9 ErrMin= 5.34D-04
 ErrMax= 5.34D-04 EMaxC= 1.00D-01 BMatC= 9.01D-05 BMatP= 6.67D-04
 IDIUse=3 WtCom= 9.95D-01 WtEn= 5.34D-03
 Coeff-Com: -0.889D-02 0.122D-01-0.255D-02 0.947D-03-0.156D-01 0.452D-02
 Coeff-Com:  0.120D+00 0.301D+00 0.588D+00
 Coeff-En:   0.000D+00 0.000D+00 0.000D+00 0.000D+00 0.000D+00 0.000D+00
 Coeff-En:   0.000D+00 0.000D+00 0.100D+01
 Coeff:     -0.884D-02 0.122D-01-0.254D-02 0.942D-03-0.155D-01 0.450D-02
 Coeff:      0.119D+00 0.300D+00 0.590D+00
 Gap=     0.121 Goal=   None    Shift=    0.000
 RMSDP=7.37D-05 MaxDP=1.44D-02 DE=-6.86D-04 OVMax= 2.11D-03

 Cycle  10  Pass 1  IDiag  1:
 RMSU=  3.13D-05    CP:  8.04D-01  1.12D+00  7.55D-01  3.33D-01  4.57D-01
                    CP:  8.62D-01  8.87D-01  7.48D-01  8.05D-01
 E= -1403.70287115800     Delta-E=       -0.000068115897 Rises=F Damp=F
 DIIS: error= 1.00D-04 at cycle  10 NSaved=  10.
 NSaved=10 IEnMin=10 EnMin= -1403.70287115800     IErMin=10 ErrMin= 1.00D-04
 ErrMax= 1.00D-04 EMaxC= 1.00D-01 BMatC= 1.31D-05 BMatP= 9.01D-05
 IDIUse=3 WtCom= 9.99D-01 WtEn= 1.00D-03
 Coeff-Com:  0.957D-03-0.138D-02-0.673D-03 0.869D-03-0.126D-01-0.811D-02
 Coeff-Com: -0.126D-02 0.623D-01 0.339D+00 0.621D+00
 Coeff-En:   0.000D+00 0.000D+00 0.000D+00 0.000D+00 0.000D+00 0.000D+00
 Coeff-En:   0.000D+00 0.000D+00 0.000D+00 0.100D+01
 Coeff:      0.956D-03-0.138D-02-0.673D-03 0.868D-03-0.126D-01-0.811D-02
 Coeff:     -0.126D-02 0.623D-01 0.338D+00 0.622D+00
 Gap=     0.120 Goal=   None    Shift=    0.000
 RMSDP=2.77D-05 MaxDP=4.23D-03 DE=-6.81D-05 OVMax= 9.45D-04

 Cycle  11  Pass 1  IDiag  1:
 RMSU=  1.18D-05    CP:  8.04D-01  1.12D+00  7.55D-01  3.32D-01  4.55D-01
                    CP:  8.65D-01  8.98D-01  7.61D-01  9.21D-01  7.72D-01
 E= -1403.70288191238     Delta-E=       -0.000010754381 Rises=F Damp=F
 DIIS: error= 4.17D-05 at cycle  11 NSaved=  11.
 NSaved=11 IEnMin=11 EnMin= -1403.70288191238     IErMin=11 ErrMin= 4.17D-05
 ErrMax= 4.17D-05 EMaxC= 1.00D-01 BMatC= 1.75D-06 BMatP= 1.31D-05
 IDIUse=1 WtCom= 1.00D+00 WtEn= 0.00D+00
 Coeff-Com:  0.154D-02-0.216D-02-0.226D-03 0.419D-03-0.553D-02-0.393D-02
 Coeff-Com: -0.106D-01 0.562D-02 0.127D+00 0.373D+00 0.514D+00
 Coeff:      0.154D-02-0.216D-02-0.226D-03 0.419D-03-0.553D-02-0.393D-02
 Coeff:     -0.106D-01 0.562D-02 0.127D+00 0.373D+00 0.514D+00
 Gap=     0.120 Goal=   None    Shift=    0.000
 RMSDP=1.12D-05 MaxDP=1.51D-03 DE=-1.08D-05 OVMax= 3.33D-04

 Cycle  12  Pass 1  IDiag  1:
 RMSU=  6.29D-06    CP:  8.04D-01  1.12D+00  7.55D-01  3.32D-01  4.54D-01
                    CP:  8.66D-01  9.03D-01  7.51D-01  9.58D-01  7.42D-01
                    CP:  8.58D-01
 E= -1403.70288318635     Delta-E=       -0.000001273963 Rises=F Damp=F
 DIIS: error= 2.54D-05 at cycle  12 NSaved=  12.
 NSaved=12 IEnMin=12 EnMin= -1403.70288318635     IErMin=12 ErrMin= 2.54D-05
 ErrMax= 2.54D-05 EMaxC= 1.00D-01 BMatC= 3.23D-07 BMatP= 1.75D-06
 IDIUse=1 WtCom= 1.00D+00 WtEn= 0.00D+00
 Coeff-Com:  0.680D-03-0.953D-03-0.972D-04 0.136D-03-0.155D-02-0.908D-03
 Coeff-Com: -0.423D-02-0.200D-02 0.333D-01 0.143D+00 0.325D+00 0.507D+00
 Coeff:      0.680D-03-0.953D-03-0.972D-04 0.136D-03-0.155D-02-0.908D-03
 Coeff:     -0.423D-02-0.200D-02 0.333D-01 0.143D+00 0.325D+00 0.507D+00
 Gap=     0.120 Goal=   None    Shift=    0.000
 RMSDP=4.23D-06 MaxDP=7.08D-04 DE=-1.27D-06 OVMax= 1.04D-04

 Cycle  13  Pass 1  IDiag  1:
 RMSU=  1.72D-06    CP:  8.04D-01  1.12D+00  7.55D-01  3.32D-01  4.54D-01
                    CP:  8.66D-01  9.01D-01  7.52D-01  9.47D-01  7.66D-01
                    CP:  7.88D-01  7.57D-01
 E= -1403.70288343452     Delta-E=       -0.000000248176 Rises=F Damp=F
 DIIS: error= 9.37D-06 at cycle  13 NSaved=  13.
 NSaved=13 IEnMin=13 EnMin= -1403.70288343452     IErMin=13 ErrMin= 9.37D-06
 ErrMax= 9.37D-06 EMaxC= 1.00D-01 BMatC= 3.26D-08 BMatP= 3.23D-07
 IDIUse=1 WtCom= 1.00D+00 WtEn= 0.00D+00
 Coeff-Com:  0.198D-03-0.275D-03-0.405D-04 0.362D-04-0.306D-03-0.761D-04
 Coeff-Com: -0.833D-03-0.617D-03 0.923D-02 0.457D-01 0.123D+00 0.269D+00
 Coeff-Com:  0.555D+00
 Coeff:      0.198D-03-0.275D-03-0.405D-04 0.362D-04-0.306D-03-0.761D-04
 Coeff:     -0.833D-03-0.617D-03 0.923D-02 0.457D-01 0.123D+00 0.269D+00
 Coeff:      0.555D+00
 Gap=     0.120 Goal=   None    Shift=    0.000
 RMSDP=1.76D-06 MaxDP=3.23D-04 DE=-2.48D-07 OVMax= 7.58D-05

 Cycle  14  Pass 1  IDiag  1:
 RMSU=  6.69D-07    CP:  8.04D-01  1.12D+00  7.55D-01  3.32D-01  4.55D-01
                    CP:  8.66D-01  9.01D-01  7.53D-01  9.44D-01  7.71D-01
                    CP:  7.96D-01  6.85D-01  7.39D-01
 E= -1403.70288345745     Delta-E=       -0.000000022927 Rises=F Damp=F
 DIIS: error= 3.50D-06 at cycle  14 NSaved=  14.
 NSaved=14 IEnMin=14 EnMin= -1403.70288345745     IErMin=14 ErrMin= 3.50D-06
 ErrMax= 3.50D-06 EMaxC= 1.00D-01 BMatC= 5.64D-09 BMatP= 3.26D-08
 IDIUse=1 WtCom= 1.00D+00 WtEn= 0.00D+00
 Coeff-Com:  0.289D-04-0.388D-04-0.147D-04 0.273D-05 0.240D-04 0.127D-03
 Coeff-Com:  0.253D-03 0.154D-03 0.223D-02 0.993D-02 0.297D-01 0.904D-01
 Coeff-Com:  0.343D+00 0.524D+00
 Coeff:      0.289D-04-0.388D-04-0.147D-04 0.273D-05 0.240D-04 0.127D-03
 Coeff:      0.253D-03 0.154D-03 0.223D-02 0.993D-02 0.297D-01 0.904D-01
 Coeff:      0.343D+00 0.524D+00
 Gap=     0.120 Goal=   None    Shift=    0.000
 RMSDP=5.10D-07 MaxDP=5.29D-05 DE=-2.29D-08 OVMax= 2.77D-05

 Cycle  15  Pass 1  IDiag  1:
 RMSU=  2.49D-07    CP:  8.04D-01  1.12D+00  7.55D-01  3.32D-01  4.55D-01
                    CP:  8.66D-01  9.00D-01  7.52D-01  9.44D-01  7.68D-01
                    CP:  8.03D-01  7.17D-01  7.49D-01  7.43D-01
 E= -1403.70288346270     Delta-E=       -0.000000005253 Rises=F Damp=F
 DIIS: error= 5.22D-07 at cycle  15 NSaved=  15.
 NSaved=15 IEnMin=15 EnMin= -1403.70288346270     IErMin=15 ErrMin= 5.22D-07
 ErrMax= 5.22D-07 EMaxC= 1.00D-01 BMatC= 1.37D-10 BMatP= 5.64D-09
 IDIUse=1 WtCom= 1.00D+00 WtEn= 0.00D+00
 Coeff-Com: -0.157D-05 0.262D-05-0.254D-05-0.150D-05 0.299D-04 0.574D-04
 Coeff-Com:  0.161D-03 0.101D-03 0.421D-03 0.100D-02 0.237D-02 0.134D-01
 Coeff-Com:  0.802D-01 0.177D+00 0.726D+00
 Coeff:     -0.157D-05 0.262D-05-0.254D-05-0.150D-05 0.299D-04 0.574D-04
 Coeff:      0.161D-03 0.101D-03 0.421D-03 0.100D-02 0.237D-02 0.134D-01
 Coeff:      0.802D-01 0.177D+00 0.726D+00
 Gap=     0.120 Goal=   None    Shift=    0.000
 RMSDP=1.88D-07 MaxDP=3.70D-05 DE=-5.25D-09 OVMax= 4.25D-06

 Cycle  16  Pass 1  IDiag  1:
 RMSU=  9.24D-08    CP:  8.04D-01  1.12D+00  7.55D-01  3.32D-01  4.54D-01
                    CP:  8.66D-01  9.00D-01  7.52D-01  9.45D-01  7.68D-01
                    CP:  8.03D-01  7.22D-01  7.74D-01  7.62D-01  8.78D-01
 E= -1403.70288346281     Delta-E=       -0.000000000110 Rises=F Damp=F
 DIIS: error= 1.86D-07 at cycle  16 NSaved=  16.
 NSaved=16 IEnMin=16 EnMin= -1403.70288346281     IErMin=16 ErrMin= 1.86D-07
 ErrMax= 1.86D-07 EMaxC= 1.00D-01 BMatC= 2.35D-11 BMatP= 1.37D-10
 IDIUse=1 WtCom= 1.00D+00 WtEn= 0.00D+00
 Coeff-Com: -0.232D-05 0.329D-05 0.916D-06-0.628D-06 0.873D-05 0.334D-05
 Coeff-Com:  0.140D-04-0.285D-05 0.126D-04-0.387D-03-0.192D-02-0.375D-02
 Coeff-Com: -0.197D-02 0.190D-01 0.346D+00 0.643D+00
 Coeff:     -0.232D-05 0.329D-05 0.916D-06-0.628D-06 0.873D-05 0.334D-05
 Coeff:      0.140D-04-0.285D-05 0.126D-04-0.387D-03-0.192D-02-0.375D-02
 Coeff:     -0.197D-02 0.190D-01 0.346D+00 0.643D+00
 Gap=     0.120 Goal=   None    Shift=    0.000
 RMSDP=1.03D-07 MaxDP=2.29D-05 DE=-1.10D-10 OVMax= 1.62D-06

 Cycle  17  Pass 1  IDiag  1:
 RMSU=  2.43D-08    CP:  8.04D-01  1.12D+00  7.55D-01  3.32D-01  4.55D-01
                    CP:  8.66D-01  9.00D-01  7.52D-01  9.45D-01  7.68D-01
                    CP:  8.02D-01  7.19D-01  7.73D-01  7.86D-01  9.44D-01
                    CP:  7.40D-01
 E= -1403.70288346276     Delta-E=        0.000000000055 Rises=F Damp=F
 DIIS: error= 7.44D-08 at cycle  17 NSaved=  17.
 NSaved=17 IEnMin=16 EnMin= -1403.70288346281     IErMin=17 ErrMin= 7.44D-08
 ErrMax= 7.44D-08 EMaxC= 1.00D-01 BMatC= 4.03D-12 BMatP= 2.35D-11
 IDIUse=1 WtCom= 1.00D+00 WtEn= 0.00D+00
 Coeff-Com: -0.134D-05 0.182D-05 0.800D-06-0.216D-06 0.159D-05-0.471D-05
 Coeff-Com: -0.103D-04-0.131D-04-0.454D-04-0.338D-03-0.135D-02-0.384D-02
 Coeff-Com: -0.110D-01-0.105D-01 0.112D+00 0.360D+00 0.554D+00
 Coeff:     -0.134D-05 0.182D-05 0.800D-06-0.216D-06 0.159D-05-0.471D-05
 Coeff:     -0.103D-04-0.131D-04-0.454D-04-0.338D-03-0.135D-02-0.384D-02
 Coeff:     -0.110D-01-0.105D-01 0.112D+00 0.360D+00 0.554D+00
 Gap=     0.120 Goal=   None    Shift=    0.000
 RMSDP=1.70D-08 MaxDP=1.60D-06 DE= 5.46D-11 OVMax= 7.08D-07

 Cycle  18  Pass 1  IDiag  1:
 RMSU=  1.06D-08    CP:  8.04D-01  1.12D+00  7.55D-01  3.32D-01  4.55D-01
                    CP:  8.66D-01  9.00D-01  7.52D-01  9.45D-01  7.68D-01
                    CP:  8.03D-01  7.20D-01  7.72D-01  7.89D-01  9.59D-01
                    CP:  7.33D-01  1.03D+00
 E= -1403.70288346279     Delta-E=       -0.000000000028 Rises=F Damp=F
 DIIS: error= 2.70D-08 at cycle  18 NSaved=  18.
 NSaved=18 IEnMin=16 EnMin= -1403.70288346281     IErMin=18 ErrMin= 2.70D-08
 ErrMax= 2.70D-08 EMaxC= 1.00D-01 BMatC= 2.08D-13 BMatP= 4.03D-12
 IDIUse=1 WtCom= 1.00D+00 WtEn= 0.00D+00
 Coeff-Com: -0.307D-06 0.410D-06 0.216D-06-0.197D-07 0.722D-07-0.188D-05
 Coeff-Com: -0.531D-05-0.614D-05-0.274D-04-0.879D-04-0.231D-03-0.861D-03
 Coeff-Com: -0.292D-02-0.393D-02 0.112D-01 0.638D-01 0.195D+00 0.738D+00
 Coeff:     -0.307D-06 0.410D-06 0.216D-06-0.197D-07 0.722D-07-0.188D-05
 Coeff:     -0.531D-05-0.614D-05-0.274D-04-0.879D-04-0.231D-03-0.861D-03
 Coeff:     -0.292D-02-0.393D-02 0.112D-01 0.638D-01 0.195D+00 0.738D+00
 Gap=     0.120 Goal=   None    Shift=    0.000
 RMSDP=5.17D-09 MaxDP=5.99D-07 DE=-2.82D-11 OVMax= 2.81D-07

 SCF Done:  E(RB+HF-LYP) =  -1403.70288346     A.U. after   18 cycles
             Convg  =    0.5174D-08             -V/T =  2.0326
             S**2   =   0.0000
 KE= 1.359437222806D+03 PE=-5.599135855263D+03 EE= 1.704820364727D+03
 Leave Link  502 at Sat Aug  2 15:22:21 2008, MaxMem=  536870912 cpu:    3915.6
 (Enter /usr/local/Chem-Apps/g03_d01/g03/l601.exe)
 Copying SCF densities to generalized density rwf, ISCF=0 IROHF=0.

 **********************************************************************

            Population analysis using the SCF density.

 **********************************************************************

 Orbital symmetries:
       Occupied  (A) (A) (A) (A) (A) (A) (A) (A) (A) (A) (A) (A)
                 (A) (A) (A) (A) (A) (A) (A) (A) (A) (A) (A) (A)
                 (A) (A) (A) (A) (A) (A) (A) (A) (A) (A) (A) (A)
                 (A) (A) (A) (A) (A) (A) (A) (A) (A) (A) (A) (A)
                 (A) (A) (A) (A) (A) (A) (A) (A) (A) (A) (A) (A)
                 (A) (A) (A)
       Virtual   (A) (A) (A) (A) (A) (A) (A) (A) (A) (A) (A) (A)
                 (A) (A) (A) (A) (A) (A) (A) (A) (A) (A) (A) (A)
                 (A) (A) (A) (A) (A) (A) (A) (A) (A) (A) (A) (A)
                 (A) (A) (A) (A) (A) (A) (A) (A) (A) (A) (A) (A)
                 (A) (A) (A) (A) (A) (A) (A) (A) (A) (A) (A) (A)
                 (A) (A) (A) (A) (A) (A) (A) (A) (A) (A) (A) (A)
                 (A) (A) (A) (A) (A) (A) (A) (A) (A) (A) (A) (A)
                 (A) (A) (A) (A) (A) (A) (A) (A) (A) (A) (A) (A)
                 (A) (A) (A) (A) (A) (A) (A) (A) (A) (A) (A) (A)
                 (A) (A) (A) (A) (A) (A) (A) (A) (A) (A) (A) (A)
                 (A) (A) (A) (A) (A) (A) (A) (A) (A) (A) (A) (A)
                 (A) (A) (A) (A) (A) (A) (A) (A) (A) (A) (A) (A)
                 (A) (A) (A) (A) (A) (A) (A) (A) (A) (A) (A) (A)
                 (A) (A) (A) (A) (A) (A) (A) (A) (A) (A) (A) (A)
                 (A) (A) (A) (A) (A) (A) (A) (A) (A) (A) (A) (A)
                 (A) (A) (A) (A) (A) (A) (A) (A) (A) (A) (A) (A)
                 (A) (A) (A) (A) (A) (A) (A) (A) (A) (A) (A) (A)
                 (A) (A) (A) (A) (A) (A) (A) (A) (A) (A) (A) (A)
                 (A) (A) (A) (A) (A) (A) (A) (A) (A) (A) (A) (A)
                 (A) (A) (A) (A) (A) (A) (A) (A) (A) (A) (A) (A)
                 (A) (A) (A) (A) (A) (A) (A) (A) (A) (A) (A) (A)
                 (A) (A) (A) (A) (A) (A) (A) (A) (A) (A) (A) (A)
                 (A) (A) (A) (A) (A) (A) (A) (A) (A) (A) (A) (A)
                 (A) (A) (A) (A) (A) (A) (A) (A) (A) (A) (A) (A)
                 (A) (A) (A) (A) (A) (A) (A) (A) (A) (A) (A) (A)
                 (A) (A) (A) (A) (A) (A) (A) (A) (A) (A) (A) (A)
                 (A) (A) (A) (A) (A) (A) (A) (A) (A) (A) (A) (A)
                 (A) (A) (A) (A) (A) (A) (A) (A) (A) (A) (A) (A)
                 (A) (A)
 The electronic state is 1-A.
 Alpha  occ. eigenvalues --  -88.81879 -77.10498 -19.00467 -19.00322 -18.98675
 Alpha  occ. eigenvalues --  -18.98652 -18.98289 -14.22772 -10.12497 -10.11268
 Alpha  occ. eigenvalues --  -10.10620  -7.88158  -6.55325  -5.84670  -5.84127
 Alpha  occ. eigenvalues --   -5.83502  -4.71701  -4.71585  -4.71444  -2.07975
 Alpha  occ. eigenvalues --   -2.07452  -2.07371  -2.05968  -2.05967  -0.87557
 Alpha  occ. eigenvalues --   -0.86454  -0.86017  -0.84086  -0.80356  -0.78987
 Alpha  occ. eigenvalues --   -0.70159  -0.69023  -0.58914  -0.57689  -0.47662
 Alpha  occ. eigenvalues --   -0.44711  -0.40531  -0.37257  -0.36998  -0.36125
 Alpha  occ. eigenvalues --   -0.34770  -0.34419  -0.34141  -0.31433  -0.28894
 Alpha  occ. eigenvalues --   -0.28634  -0.27806  -0.27349  -0.26383  -0.25163
 Alpha  occ. eigenvalues --   -0.24877  -0.22314  -0.19647  -0.19072  -0.18745
 Alpha  occ. eigenvalues --   -0.17642  -0.17119  -0.16742  -0.16600  -0.15670
 Alpha  occ. eigenvalues --   -0.14921  -0.14021  -0.13536
 Alpha virt. eigenvalues --   -0.01509   0.06491   0.07286   0.08186   0.08649
 Alpha virt. eigenvalues --    0.09981   0.10373   0.11064   0.11536   0.12595
 Alpha virt. eigenvalues --    0.12798   0.13382   0.13885   0.14667   0.15184
 Alpha virt. eigenvalues --    0.15940   0.16165   0.16474   0.16765   0.16902
 Alpha virt. eigenvalues --    0.17374   0.17815   0.18121   0.18376   0.18900
 Alpha virt. eigenvalues --    0.19725   0.20151   0.20423   0.21090   0.21260
 Alpha virt. eigenvalues --    0.21947   0.22537   0.23643   0.24014   0.24705
 Alpha virt. eigenvalues --    0.24991   0.25126   0.26522   0.27016   0.27768
 Alpha virt. eigenvalues --    0.28155   0.28571   0.28800   0.29017   0.29526
 Alpha virt. eigenvalues --    0.29700   0.30538   0.30885   0.31635   0.31831
 Alpha virt. eigenvalues --    0.31939   0.32184   0.32574   0.32717   0.33153
 Alpha virt. eigenvalues --    0.33449   0.33909   0.34378   0.35040   0.35513
 Alpha virt. eigenvalues --    0.36203   0.36446   0.36958   0.37445   0.37952
 Alpha virt. eigenvalues --    0.38411   0.38954   0.39673   0.39869   0.40089
 Alpha virt. eigenvalues --    0.40914   0.41458   0.41734   0.42320   0.42766
 Alpha virt. eigenvalues --    0.43551   0.43867   0.44374   0.44744   0.45111
 Alpha virt. eigenvalues --    0.45643   0.46783   0.47451   0.47835   0.48152
 Alpha virt. eigenvalues --    0.49073   0.50141   0.50266   0.51393   0.51874
 Alpha virt. eigenvalues --    0.52484   0.52636   0.53516   0.54744   0.54894
 Alpha virt. eigenvalues --    0.55472   0.55845   0.56776   0.57738   0.58386
 Alpha virt. eigenvalues --    0.58741   0.59133   0.60079   0.60594   0.61447
 Alpha virt. eigenvalues --    0.61978   0.62257   0.63071   0.63439   0.63484
 Alpha virt. eigenvalues --    0.64885   0.65275   0.65577   0.66399   0.66719
 Alpha virt. eigenvalues --    0.67571   0.67845   0.68431   0.69065   0.69659
 Alpha virt. eigenvalues --    0.70535   0.71086   0.71593   0.73236   0.73546
 Alpha virt. eigenvalues --    0.74361   0.74718   0.75442   0.75678   0.76906
 Alpha virt. eigenvalues --    0.77711   0.78522   0.78999   0.79616   0.80173
 Alpha virt. eigenvalues --    0.81515   0.82824   0.82873   0.83863   0.84726
 Alpha virt. eigenvalues --    0.85530   0.86851   0.87435   0.88728   0.89062
 Alpha virt. eigenvalues --    0.89631   0.90807   0.91422   0.91827   0.92629
 Alpha virt. eigenvalues --    0.93931   0.94387   0.95700   0.96690   0.97049
 Alpha virt. eigenvalues --    0.98534   1.00328   1.00520   1.01299   1.02606
 Alpha virt. eigenvalues --    1.02896   1.04145   1.04690   1.05676   1.06090
 Alpha virt. eigenvalues --    1.07077   1.07554   1.08454   1.08976   1.10224
 Alpha virt. eigenvalues --    1.10778   1.11534   1.12305   1.12592   1.13418
 Alpha virt. eigenvalues --    1.14722   1.15187   1.15645   1.18299   1.18847
 Alpha virt. eigenvalues --    1.20377   1.20767   1.21070   1.22840   1.23714
 Alpha virt. eigenvalues --    1.24851   1.25404   1.26359   1.28426   1.28546
 Alpha virt. eigenvalues --    1.28779   1.29542   1.31169   1.32323   1.33927
 Alpha virt. eigenvalues --    1.34623   1.36172   1.37238   1.38220   1.39832
 Alpha virt. eigenvalues --    1.42080   1.43983   1.45363   1.45811   1.46746
 Alpha virt. eigenvalues --    1.47430   1.48474   1.49370   1.50439   1.51478
 Alpha virt. eigenvalues --    1.52608   1.52672   1.54378   1.55751   1.56581
 Alpha virt. eigenvalues --    1.56955   1.58068   1.59521   1.60702   1.62722
 Alpha virt. eigenvalues --    1.63556   1.64120   1.66462   1.67752   1.69681
 Alpha virt. eigenvalues --    1.70538   1.72276   1.73150   1.74381   1.77375
 Alpha virt. eigenvalues --    1.81408   1.82032   1.85437   1.86126   1.87832
 Alpha virt. eigenvalues --    1.88106   1.89506   1.91072   1.91232   1.91938
 Alpha virt. eigenvalues --    1.92651   1.94460   1.95971   1.97219   2.00032
 Alpha virt. eigenvalues --    2.00341   2.01784   2.02134   2.03571   2.05787
 Alpha virt. eigenvalues --    2.06653   2.07804   2.08369   2.10253   2.10856
 Alpha virt. eigenvalues --    2.12125   2.13995   2.15791   2.21862   2.22617
 Alpha virt. eigenvalues --    2.28142   2.33013   2.33835   2.35575   2.36874
 Alpha virt. eigenvalues --    2.37443   2.41494   2.42589   2.44374   2.45384
 Alpha virt. eigenvalues --    2.46217   2.47591   2.50721   2.51065   2.52124
 Alpha virt. eigenvalues --    2.55645   2.61321   2.63557   2.65360   2.66335
 Alpha virt. eigenvalues --    2.67632   2.68493   2.69777   2.71618   2.73751
 Alpha virt. eigenvalues --    2.76556   2.79768   2.81156   2.87812   2.91098
 Alpha virt. eigenvalues --    2.92946   2.94412   2.97087   2.99247   3.00419
 Alpha virt. eigenvalues --    3.09827   3.13023   3.32051   3.45906   3.47076
 Alpha virt. eigenvalues --    3.48426   3.49308   3.50371   3.51780   3.52763
 Alpha virt. eigenvalues --    3.53418   3.53713   3.54657   3.54911   3.57974
 Alpha virt. eigenvalues --    3.59403   3.60139   3.62431   3.65407   3.73259
 Alpha virt. eigenvalues --    3.74143   3.85372   3.86345   3.90900   3.92360
 Alpha virt. eigenvalues --    3.94638   4.14000   4.16246   4.20400   4.68799
 Alpha virt. eigenvalues --    4.72955   4.80576   4.81154   4.96011   5.86600
 Alpha virt. eigenvalues --    5.88345   5.98195  13.84210  13.87024  13.92626
 Alpha virt. eigenvalues --   13.93536  14.07427  22.27683
          Condensed to atoms (all electrons):
              1          2          3          4          5          6
     1  C    6.159047  -0.249933  -0.053062   0.133666  -0.135519  -0.327258
     2  H   -0.249933   2.301535  -0.336535  -0.035562   0.018487  -0.180696
     3  H   -0.053062  -0.336535   2.527899   0.218361  -0.108970  -0.013312
     4  N    0.133666  -0.035562   0.218361   7.506068   0.284312  -0.927401
     5  H   -0.135519   0.018487  -0.108970   0.284312   1.060701  -0.063093
     6  P   -0.327258  -0.180696  -0.013312  -0.927401  -0.063093  16.924831
     7  O    0.031131   0.006556   0.001983  -0.042940  -0.000756  -0.035411
     8  O    0.107572   0.011699  -0.033816   0.194124   0.013740  -0.568904
     9  C   -0.148108  -0.185048  -0.476934   0.064816   0.082715  -0.399310
    10  H   -0.144623  -0.078893   0.078973  -0.131405   0.002172  -0.016428
    11  C   -0.440878   0.157962  -0.102636  -0.035586  -0.001734  -0.020490
    12  H    0.085665  -0.004450   0.033739   0.020632  -0.004668   0.015810
    13  H   -0.202783   0.028098  -0.161197  -0.043732   0.011272  -0.012804
    14  O   -0.006182   0.001013   0.001544   0.013342   0.000050  -0.006380
    15  H   -0.010220   0.001080  -0.001616  -0.028681  -0.004673   0.097685
    16  H   -0.006109   0.000787   0.001261   0.003333   0.000163   0.016454
    17  O    0.000548   0.000812  -0.000199   0.002727   0.000278  -0.033163
    18  H   -0.003962  -0.001717  -0.000496   0.030511   0.000830  -0.069908
    19  H   -0.002707   0.005927  -0.001330  -0.000388  -0.002255   0.002535
    20  O    0.000899  -0.009229  -0.002179   0.008196   0.000313  -0.043819
    21  H    0.006962   0.012266  -0.015699  -0.003670  -0.000087  -0.002550
    22  H   -0.008361  -0.022273   0.009173   0.005625   0.000774   0.019068
    23  S    0.122801   0.091086  -0.011022   0.164441  -0.013458  -1.159262
    24  I   -0.002928  -0.015688  -0.000630   0.026401  -0.000139  -0.239182
              7          8          9         10         11         12
     1  C    0.031131   0.107572  -0.148108  -0.144623  -0.440878   0.085665
     2  H    0.006556   0.011699  -0.185048  -0.078893   0.157962  -0.004450
     3  H    0.001983  -0.033816  -0.476934   0.078973  -0.102636   0.033739
     4  N   -0.042940   0.194124   0.064816  -0.131405  -0.035586   0.020632
     5  H   -0.000756   0.013740   0.082715   0.002172  -0.001734  -0.004668
     6  P   -0.035411  -0.568904  -0.399310  -0.016428  -0.020490   0.015810
     7  O    9.012971  -0.012849   0.001004   0.001972  -0.001373  -0.000353
     8  O   -0.012849   9.144959   0.017439   0.001738  -0.001408  -0.000266
     9  C    0.001004   0.017439   6.796194  -0.583523  -0.643791   0.269240
    10  H    0.001972   0.001738  -0.583523   2.919411  -0.160683  -0.269280
    11  C   -0.001373  -0.001408  -0.643791  -0.160683   6.492958  -0.310880
    12  H   -0.000353  -0.000266   0.269240  -0.269280  -0.310880   2.447013
    13  H    0.000135   0.000407  -0.299958   0.148252   0.386884  -0.716101
    14  O   -0.041507  -0.050167   0.001374   0.000056   0.000611   0.000032
    15  H    0.051332  -0.026380  -0.005096   0.000010   0.000237   0.000055
    16  H   -0.010846   0.056987   0.001297  -0.000281   0.001679   0.000076
    17  O   -0.043905   0.002182   0.000187   0.000510  -0.000046  -0.000023
    18  H    0.087181   0.006396   0.005676   0.002041   0.000137  -0.000082
    19  H   -0.008632   0.002139  -0.002334  -0.002588  -0.000624   0.000088
    20  O    0.002779  -0.029935  -0.001313   0.000152  -0.000603  -0.000056
    21  H    0.003079   0.096044  -0.003244  -0.001612   0.000197   0.000181
    22  H    0.003704  -0.014629   0.005951   0.001706  -0.000148  -0.000206
    23  S    0.003807   0.129866   0.083746   0.012298   0.011056  -0.002555
    24  I    0.018702   0.030694  -0.000742   0.000384  -0.000485  -0.000023
             13         14         15         16         17         18
     1  C   -0.202783  -0.006182  -0.010220  -0.006109   0.000548  -0.003962
     2  H    0.028098   0.001013   0.001080   0.000787   0.000812  -0.001717
     3  H   -0.161197   0.001544  -0.001616   0.001261  -0.000199  -0.000496
     4  N   -0.043732   0.013342  -0.028681   0.003333   0.002727   0.030511
     5  H    0.011272   0.000050  -0.004673   0.000163   0.000278   0.000830
     6  P   -0.012804  -0.006380   0.097685   0.016454  -0.033163  -0.069908
     7  O    0.000135  -0.041507   0.051332  -0.010846  -0.043905   0.087181
     8  O    0.000407  -0.050167  -0.026380   0.056987   0.002182   0.006396
     9  C   -0.299958   0.001374  -0.005096   0.001297   0.000187   0.005676
    10  H    0.148252   0.000056   0.000010  -0.000281   0.000510   0.002041
    11  C    0.386884   0.000611   0.000237   0.001679  -0.000046   0.000137
    12  H   -0.716101   0.000032   0.000055   0.000076  -0.000023  -0.000082
    13  H    2.435564   0.000035   0.000101  -0.000173   0.000018   0.000135
    14  O    0.000035   7.903984   0.247963   0.249481  -0.000495   0.002603
    15  H    0.000101   0.247963   0.649717  -0.096870   0.000571  -0.003314
    16  H   -0.000173   0.249481  -0.096870   0.637922  -0.000392   0.000303
    17  O    0.000018  -0.000495   0.000571  -0.000392   7.825088   0.206611
    18  H    0.000135   0.002603  -0.003314   0.000303   0.206611   0.604492
    19  H   -0.000073  -0.001107   0.001591  -0.001352   0.318272  -0.119794
    20  O    0.000344  -0.000877  -0.001385   0.000642   0.000093   0.000289
    21  H    0.000233   0.001432   0.001028  -0.002230  -0.000192  -0.000940
    22  H    0.000065  -0.000146  -0.001104   0.000620   0.000616   0.002010
    23  S    0.004479  -0.000690  -0.012125  -0.001460   0.005925   0.029284
    24  I   -0.000002  -0.001320  -0.007537  -0.002706  -0.002685   0.013024
             19         20         21         22         23         24
     1  C   -0.002707   0.000899   0.006962  -0.008361   0.122801  -0.002928
     2  H    0.005927  -0.009229   0.012266  -0.022273   0.091086  -0.015688
     3  H   -0.001330  -0.002179  -0.015699   0.009173  -0.011022  -0.000630
     4  N   -0.000388   0.008196  -0.003670   0.005625   0.164441   0.026401
     5  H   -0.002255   0.000313  -0.000087   0.000774  -0.013458  -0.000139
     6  P    0.002535  -0.043819  -0.002550   0.019068  -1.159262  -0.239182
     7  O   -0.008632   0.002779   0.003079   0.003704   0.003807   0.018702
     8  O    0.002139  -0.029935   0.096044  -0.014629   0.129866   0.030694
     9  C   -0.002334  -0.001313  -0.003244   0.005951   0.083746  -0.000742
    10  H   -0.002588   0.000152  -0.001612   0.001706   0.012298   0.000384
    11  C   -0.000624  -0.000603   0.000197  -0.000148   0.011056  -0.000485
    12  H    0.000088  -0.000056   0.000181  -0.000206  -0.002555  -0.000023
    13  H   -0.000073   0.000344   0.000233   0.000065   0.004479  -0.000002
    14  O   -0.001107  -0.000877   0.001432  -0.000146  -0.000690  -0.001320
    15  H    0.001591  -0.001385   0.001028  -0.001104  -0.012125  -0.007537
    16  H   -0.001352   0.000642  -0.002230   0.000620  -0.001460  -0.002706
    17  O    0.318272   0.000093  -0.000192   0.000616   0.005925  -0.002685
    18  H   -0.119794   0.000289  -0.000940   0.002010   0.029284   0.013024
    19  H    0.777315  -0.000137   0.001592  -0.004578  -0.031098   0.015655
    20  O   -0.000137   7.866854   0.188014   0.306168  -0.016765   0.011599
    21  H    0.001592   0.188014   0.595757  -0.109027   0.008911  -0.004532
    22  H   -0.004578   0.306168  -0.109027   0.748675  -0.067422   0.042364
    23  S   -0.031098  -0.016765   0.008911  -0.067422  17.351941  -0.084295
    24  I    0.015655   0.011599  -0.004532   0.042364  -0.084295  17.137606
 Mulliken atomic charges:
              1
     1  C    1.094344
     2  H   -0.517284
     3  H   -0.553298
     4  N   -0.427191
     5  H   -0.140456
     6  P    2.042988
     7  O   -1.027762
     8  O   -1.077631
     9  C    1.419762
    10  H   -0.780359
    11  C    0.669645
    12  H   -0.563587
    13  H   -0.579196
    14  O   -0.314648
    15  H    0.147631
    16  H    0.151415
    17  O   -0.283337
    18  H    0.208690
    19  H    0.053881
    20  O   -0.280045
    21  H    0.228088
    22  H    0.081372
    23  S   -0.619488
    24  I    0.066466
 Sum of Mulliken charges=  -1.00000
 Atomic charges with hydrogens summed into heavy atoms:
              1
     1  C    0.023762
     2  H    0.000000
     3  H    0.000000
     4  N   -0.567647
     5  H    0.000000
     6  P    2.042988
     7  O   -1.027762
     8  O   -1.077631
     9  C    0.639403
    10  H    0.000000
    11  C   -0.473139
    12  H    0.000000
    13  H    0.000000
    14  O   -0.015602
    15  H    0.000000
    16  H    0.000000
    17  O   -0.020765
    18  H    0.000000
    19  H    0.000000
    20  O    0.029415
    21  H    0.000000
    22  H    0.000000
    23  S   -0.619488
    24  I    0.066466
 Sum of Mulliken charges=  -1.00000
 Electronic spatial extent (au):  <R**2>=  4462.9451
 Charge=    -1.0000 electrons
 Dipole moment (field-independent basis, Debye):
    X=    -2.3580    Y=    -7.3185    Z=    -2.7262  Tot=     8.1580
 Quadrupole moment (field-independent basis, Debye-Ang):
   XX=  -114.3890   YY=  -145.9089   ZZ=  -150.8211
   XY=    -0.8789   XZ=    -9.1002   YZ=     4.4067
 Traceless Quadrupole moment (field-independent basis, Debye-Ang):
   XX=    22.6507   YY=    -8.8692   ZZ=   -13.7815
   XY=    -0.8789   XZ=    -9.1002   YZ=     4.4067
 Octapole moment (field-independent basis, Debye-Ang**2):
  XXX=  -195.9025  YYY=  -105.7696  ZZZ=   -13.8174  XYY=   -81.7751
  XXY=    -3.9314  XXZ=    15.2403  XZZ=   -42.3266  YZZ=   -18.4668
  YYZ=   -43.2506  XYZ=   -16.8299
 Hexadecapole moment (field-independent basis, Debye-Ang**3):
 XXXX= -3988.8837 YYYY= -1806.1286 ZZZZ= -1563.8859 XXXY=   138.7514
 XXXZ=    29.9355 YYYX=    22.7117 YYYZ=  -170.9831 ZZZX=   -51.4919
 ZZZY=   152.3095 XXYY=  -997.3917 XXZZ=  -906.3926 YYZZ=  -570.5904
 XXYZ=    12.1711 YYXZ=   -65.9636 ZZXY=    53.4306
 N-N= 1.131175384267D+03 E-N=-5.599135857341D+03  KE= 1.359437222806D+03
 No NMR shielding tensors so no spin-rotation constants.
 Leave Link  601 at Sat Aug  2 15:22:22 2008, MaxMem=  536870912 cpu:      11.6
 (Enter /usr/local/Chem-Apps/g03_d01/g03/l701.exe)
 Compute integral first derivatives.
 ... and contract with generalized density number  0.
   1 Symmetry operations used in ECPInt.
 ECPInt:  NShTT=   15051 NPrTT=   77353 LenC2=   14544 LenP2D=   49627.
 LDataN:  DoStor=F MaxTD1= 6 Len=  172
 LDataN:  DoStor=T MaxTD1= 6 Len=  172
 Leave Link  701 at Sat Aug  2 15:22:24 2008, MaxMem=  536870912 cpu:      22.8
 (Enter /usr/local/Chem-Apps/g03_d01/g03/l702.exe)
 L702 exits ... SP integral derivatives will be done elsewhere.
 Leave Link  702 at Sat Aug  2 15:22:24 2008, MaxMem=  536870912 cpu:       0.1
 (Enter /usr/local/Chem-Apps/g03_d01/g03/l703.exe)
 Compute integral first derivatives, UseDBF=F.
 Integral derivatives from FoFDir, PRISM(SPDF).
 Symmetry not used in FoFDir.
 MinBra= 0 MaxBra= 2 Meth= 1.
 IRaf=       0 NMat=   1 IRICut=       1 DoRegI=T DoRafI=F ISym2E= 0 JSym2E=0.
 Defaulting to unpruned grid for atomic number  53.
 Defaulting to unpruned grid for atomic number  53.
 Defaulting to unpruned grid for atomic number  53.
 Defaulting to unpruned grid for atomic number  53.
 Defaulting to unpruned grid for atomic number  53.
 Defaulting to unpruned grid for atomic number  53.
 Defaulting to unpruned grid for atomic number  53.
 Defaulting to unpruned grid for atomic number  53.
 Defaulting to unpruned grid for atomic number  53.
 Defaulting to unpruned grid for atomic number  53.
 Defaulting to unpruned grid for atomic number  53.
 Defaulting to unpruned grid for atomic number  53.
 Defaulting to unpruned grid for atomic number  53.
 Defaulting to unpruned grid for atomic number  53.
 Defaulting to unpruned grid for atomic number  53.
 Defaulting to unpruned grid for atomic number  53.
[...]
                 (A) (A) (A) (A) (A) (A) (A) (A) (A) (A) (A) (A)
                 (A) (A) (A) (A) (A) (A) (A) (A) (A) (A) (A) (A)
                 (A) (A) (A) (A) (A) (A) (A) (A) (A) (A) (A) (A)
                 (A) (A) (A) (A) (A) (A) (A) (A) (A) (A) (A) (A)
                 (A) (A) (A) (A) (A) (A) (A) (A) (A) (A) (A) (A)
                 (A) (A) (A) (A) (A) (A) (A) (A) (A) (A) (A) (A)
                 (A) (A) (A) (A) (A) (A) (A) (A) (A) (A) (A) (A)
                 (A) (A) (A) (A) (A) (A) (A) (A) (A) (A) (A) (A)
                 (A) (A) (A) (A) (A) (A) (A) (A) (A) (A) (A) (A)
                 (A) (A) (A) (A) (A) (A) (A) (A) (A) (A) (A) (A)
                 (A) (A) (A) (A) (A) (A) (A) (A) (A) (A) (A) (A)
                 (A) (A) (A) (A) (A) (A) (A) (A) (A) (A) (A) (A)
                 (A) (A) (A) (A) (A) (A) (A) (A) (A) (A) (A) (A)
                 (A) (A) (A) (A) (A) (A) (A) (A) (A) (A) (A) (A)
                 (A) (A) (A) (A) (A) (A) (A) (A) (A) (A) (A) (A)
                 (A) (A) (A) (A) (A) (A) (A) (A) (A) (A) (A) (A)
                 (A) (A)
 The electronic state is 1-A.
 Alpha  occ. eigenvalues --  -88.89467 -77.14921 -19.13255 -19.13248 -19.12931
 Alpha  occ. eigenvalues --  -19.11172 -19.11137 -14.33570 -10.21420 -10.19110
 Alpha  occ. eigenvalues --  -10.18241  -7.95230  -6.62250  -5.91847  -5.91195
 Alpha  occ. eigenvalues --   -5.90601  -4.78572  -4.78401  -4.78249  -2.14808
 Alpha  occ. eigenvalues --   -2.14381  -2.14319  -2.13119  -2.13119  -1.00306
 Alpha  occ. eigenvalues --   -0.99508  -0.99282  -0.98615  -0.93813  -0.89680
 Alpha  occ. eigenvalues --   -0.77833  -0.74052  -0.67807  -0.64782  -0.56328
 Alpha  occ. eigenvalues --   -0.55544  -0.51221  -0.50848  -0.50364  -0.49421
 Alpha  occ. eigenvalues --   -0.44907  -0.44244  -0.43883  -0.41542  -0.39651
 Alpha  occ. eigenvalues --   -0.39094  -0.38441  -0.37878  -0.37161  -0.35649
 Alpha  occ. eigenvalues --   -0.34543  -0.32004  -0.31347  -0.30420  -0.30335
 Alpha  occ. eigenvalues --   -0.29860  -0.29140  -0.29117  -0.28259  -0.27539
 Alpha  occ. eigenvalues --   -0.25768  -0.24475  -0.22688
 Alpha virt. eigenvalues --   -0.09675  -0.01321  -0.00447   0.01031   0.01469
 Alpha virt. eigenvalues --    0.01734   0.02575   0.03345   0.03949   0.04911
 Alpha virt. eigenvalues --    0.05461   0.05902   0.06901   0.07974   0.08120
 Alpha virt. eigenvalues --    0.09272   0.09545   0.10361   0.10836   0.11006
 Alpha virt. eigenvalues --    0.11189   0.11610   0.12312   0.13003   0.13649
 Alpha virt. eigenvalues --    0.14146   0.14338   0.14716   0.14994   0.15351
 Alpha virt. eigenvalues --    0.15794   0.16594   0.17032   0.17331   0.18078
 Alpha virt. eigenvalues --    0.18601   0.18803   0.19542   0.20061   0.20416
 Alpha virt. eigenvalues --    0.20957   0.21268   0.21683   0.22161   0.22939
 Alpha virt. eigenvalues --    0.23137   0.23672   0.23962   0.24522   0.25573
 Alpha virt. eigenvalues --    0.26157   0.26833   0.27312   0.27822   0.28654
 Alpha virt. eigenvalues --    0.29165   0.29836   0.30320   0.31068   0.32532
 Alpha virt. eigenvalues --    0.32835   0.33690   0.35095   0.36008   0.36399
 Alpha virt. eigenvalues --    0.37171   0.37806   0.38706   0.39377   0.39833
 Alpha virt. eigenvalues --    0.40971   0.41628   0.42422   0.43053   0.44189
 Alpha virt. eigenvalues --    0.45120   0.45791   0.46259   0.47462   0.48027
 Alpha virt. eigenvalues --    0.48875   0.50612   0.51010   0.51209   0.52673
 Alpha virt. eigenvalues --    0.53920   0.54911   0.55471   0.56153   0.56440
 Alpha virt. eigenvalues --    0.57711   0.58088   0.59279   0.59533   0.60570
 Alpha virt. eigenvalues --    0.61424   0.63197   0.63828   0.64708   0.65637
 Alpha virt. eigenvalues --    0.67402   0.68853   0.69493   0.70415   0.71771
 Alpha virt. eigenvalues --    0.72497   0.73109   0.74255   0.74607   0.75054
 Alpha virt. eigenvalues --    0.75967   0.76360   0.76700   0.77101   0.77555
 Alpha virt. eigenvalues --    0.77884   0.79059   0.79556   0.79795   0.80808
 Alpha virt. eigenvalues --    0.81263   0.82402   0.83007   0.83642   0.84355
 Alpha virt. eigenvalues --    0.85235   0.86639   0.87967   0.88470   0.89067
 Alpha virt. eigenvalues --    0.90062   0.90146   0.91231   0.91894   0.92970
 Alpha virt. eigenvalues --    0.93923   0.95359   0.95768   0.97050   0.98131
 Alpha virt. eigenvalues --    0.99021   1.00384   1.01922   1.02899   1.03643
 Alpha virt. eigenvalues --    1.04697   1.05228   1.05578   1.06302   1.07539
 Alpha virt. eigenvalues --    1.07905   1.08432   1.09800   1.10473   1.11569
 Alpha virt. eigenvalues --    1.12419   1.13402   1.13998   1.14897   1.16513
 Alpha virt. eigenvalues --    1.16825   1.18253   1.18345   1.19618   1.20800
 Alpha virt. eigenvalues --    1.21764   1.22932   1.23239   1.24027   1.24728
 Alpha virt. eigenvalues --    1.25358   1.27182   1.28478   1.28805   1.30825
 Alpha virt. eigenvalues --    1.31753   1.32696   1.33963   1.35494   1.36211
 Alpha virt. eigenvalues --    1.37027   1.38125   1.39922   1.42575   1.43778
 Alpha virt. eigenvalues --    1.45306   1.47252   1.49600   1.53396   1.53906
 Alpha virt. eigenvalues --    1.54552   1.55697   1.56504   1.56863   1.59034
 Alpha virt. eigenvalues --    1.61248   1.63329   1.63765   1.66993   1.67414
 Alpha virt. eigenvalues --    1.69215   1.70810   1.71889   1.72787   1.73680
 Alpha virt. eigenvalues --    1.75769   1.76300   1.77062   1.78186   1.79128
 Alpha virt. eigenvalues --    1.79738   1.80846   1.81279   1.82170   1.84449
 Alpha virt. eigenvalues --    1.85094   1.86000   1.87850   1.89534   1.90497
 Alpha virt. eigenvalues --    1.91429   1.93133   1.94177   1.94642   1.95717
 Alpha virt. eigenvalues --    1.98603   1.99568   2.02649   2.04166   2.07258
 Alpha virt. eigenvalues --    2.08869   2.10752   2.11606   2.14094   2.15380
 Alpha virt. eigenvalues --    2.17052   2.20229   2.22438   2.24488   2.28503
 Alpha virt. eigenvalues --    2.29593   2.31412   2.32674   2.33884   2.34671
 Alpha virt. eigenvalues --    2.35529   2.36229   2.38567   2.38821   2.41154
 Alpha virt. eigenvalues --    2.44750   2.46362   2.47951   2.48866   2.51665
 Alpha virt. eigenvalues --    2.52511   2.55854   2.57311   2.58337   2.62071
 Alpha virt. eigenvalues --    2.65662   2.67785   2.68867   2.71206   2.72129
 Alpha virt. eigenvalues --    2.76883   2.82570   2.86236   2.89697   3.11169
 Alpha virt. eigenvalues --    3.16249   3.19163   3.20096   3.22611   3.25135
 Alpha virt. eigenvalues --    3.25584   3.26461   3.29062   3.29349   3.33754
 Alpha virt. eigenvalues --    3.35579   3.37128   3.44013   3.46940   3.48929
 Alpha virt. eigenvalues --    3.51278   3.54080   3.54746   3.56438   3.57333
 Alpha virt. eigenvalues --    3.60561   3.63957   3.67647   3.72827   3.77460
 Alpha virt. eigenvalues --    3.79038   3.79978   3.84068   3.93034   4.59541
 Alpha virt. eigenvalues --    4.60763   4.65365   4.71275   4.84561   4.91574
 Alpha virt. eigenvalues --    4.95032   5.04539   5.17598   5.23024   5.36784
 Alpha virt. eigenvalues --    5.41515   5.42578   5.46811   5.49105   5.51548
 Alpha virt. eigenvalues --    5.52504   5.54051   5.55665   5.57462   5.61628
 Alpha virt. eigenvalues --    5.66335   5.74409   5.79154   5.83465   6.82951
 Alpha virt. eigenvalues --    6.83942   6.85938   6.89022   6.90229   6.98445
 Alpha virt. eigenvalues --    7.01749   8.68295   8.96331   9.14160  10.13737
 Alpha virt. eigenvalues --   13.75731  13.76579  13.80294  13.85179  13.96497
 Alpha virt. eigenvalues --   20.73606  20.75623  20.88493  20.98910  20.99639
 Alpha virt. eigenvalues --   21.91138  35.00275  35.25183  35.41802  36.66298
 Alpha virt. eigenvalues --   36.79771  36.92985  36.97233  36.99643  37.01204
 Alpha virt. eigenvalues --   37.01864  37.02530  37.03485  37.07426  37.09241
 Alpha virt. eigenvalues --   37.16901  59.09741
          Condensed to atoms (all electrons):
              1          2          3          4          5          6
     1  C    5.617986   0.373600   0.366667   0.135755  -0.046111  -0.269200
     2  H    0.373600   0.498850  -0.019772  -0.023377   0.001858   0.005833
     3  H    0.366667  -0.019772   0.485726  -0.022451  -0.000911   0.009294
     4  N    0.135755  -0.023377  -0.022451   6.756478   0.397304   0.314849
     5  H   -0.046111   0.001858  -0.000911   0.397304   0.429057  -0.028329
     6  P   -0.269200   0.005833   0.009294   0.314849  -0.028329  13.542738
     7  O    0.017120   0.001746   0.000000  -0.073828   0.005149   0.094160
     8  O    0.000031  -0.000003   0.000833  -0.023590  -0.000578   0.019723
     9  C    0.199850  -0.043661  -0.026384  -0.024691   0.001531  -0.061988
    10  H   -0.035692  -0.000488   0.002409   0.009707  -0.000299  -0.002899
    11  C   -0.134223   0.014123  -0.010980   0.015927   0.002136   0.023765
    12  H   -0.005986  -0.000070   0.000072  -0.000741   0.000002   0.000138
    13  H   -0.002044   0.000055   0.004131   0.000168   0.000020   0.000049
    14  O    0.003100   0.000000  -0.000012  -0.000120   0.000002  -0.018346
    15  H   -0.000544   0.000001   0.000000  -0.001290  -0.000001   0.008696
    16  H   -0.000755   0.000002   0.000000  -0.001118   0.000000   0.007865
    17  O   -0.007110  -0.000151  -0.000027  -0.015728   0.010571  -0.006923
    18  H    0.000231   0.000002  -0.000001  -0.004820  -0.001164   0.016757
    19  H    0.001561   0.000000   0.000000   0.003048  -0.000359   0.007535
    20  O   -0.008964   0.008647  -0.000021   0.002097   0.000026  -0.008314
    21  H   -0.003200   0.000275   0.000005  -0.001736   0.000001   0.018933
    22  H   -0.001140  -0.000250   0.000002  -0.000751   0.000000   0.012984
    23  S    0.017088   0.000578  -0.000597  -0.023916  -0.001948   0.015860
    24  I    0.002045  -0.000024   0.000002   0.001265  -0.000004  -0.030742
              7          8          9         10         11         12
     1  C    0.017120   0.000031   0.199850  -0.035692  -0.134223  -0.005986
     2  H    0.001746  -0.000003  -0.043661  -0.000488   0.014123  -0.000070
     3  H    0.000000   0.000833  -0.026384   0.002409  -0.010980   0.000072
     4  N   -0.073828  -0.023590  -0.024691   0.009707   0.015927  -0.000741
     5  H    0.005149  -0.000578   0.001531  -0.000299   0.002136   0.000002
     6  P    0.094160   0.019723  -0.061988  -0.002899   0.023765   0.000138
     7  O    9.072972  -0.086846   0.006179   0.000076  -0.001184  -0.000003
     8  O   -0.086846   9.044301   0.017630  -0.000211   0.000828   0.000000
     9  C    0.006179   0.017630   5.290719   0.406488  -0.014572   0.039847
    10  H    0.000076  -0.000211   0.406488   0.513372  -0.027772  -0.004353
    11  C   -0.001184   0.000828  -0.014572  -0.027772   5.924708   0.361283
    12  H   -0.000003   0.000000   0.039847  -0.004353   0.361283   0.492067
    13  H    0.000006   0.000000   0.019112   0.002017   0.361089  -0.024344
    14  O   -0.021767  -0.018588   0.000186   0.000000  -0.000052   0.000000
    15  H    0.016581   0.001471  -0.000080   0.000000   0.000003   0.000000
    16  H    0.001672   0.014011  -0.000090   0.000000   0.000005   0.000000
    17  O   -0.047007  -0.003082   0.000313   0.000141   0.001978   0.000000
    18  H    0.022507  -0.000033  -0.000651   0.000000  -0.000085   0.000000
    19  H    0.005414  -0.000070  -0.001098   0.000000  -0.000057   0.000000
    20  O   -0.000968  -0.043765  -0.003313   0.000141   0.000005   0.000008
    21  H   -0.000812   0.021845  -0.001286  -0.000010   0.000085   0.000000
    22  H   -0.000153   0.004776   0.000664  -0.000017   0.000328   0.000000
    23  S   -0.023809   0.032520   0.060054   0.003018  -0.014373   0.000104
    24  I    0.013688  -0.000510  -0.008314   0.000025  -0.000051   0.000000
             13         14         15         16         17         18
     1  C   -0.002044   0.003100  -0.000544  -0.000755  -0.007110   0.000231
     2  H    0.000055   0.000000   0.000001   0.000002  -0.000151   0.000002
     3  H    0.004131  -0.000012   0.000000   0.000000  -0.000027  -0.000001
     4  N    0.000168  -0.000120  -0.001290  -0.001118  -0.015728  -0.004820
     5  H    0.000020   0.000002  -0.000001   0.000000   0.010571  -0.001164
     6  P    0.000049  -0.018346   0.008696   0.007865  -0.006923   0.016757
     7  O    0.000006  -0.021767   0.016581   0.001672  -0.047007   0.022507
     8  O    0.000000  -0.018588   0.001471   0.014011  -0.003082  -0.000033
     9  C    0.019112   0.000186  -0.000080  -0.000090   0.000313  -0.000651
    10  H    0.002017   0.000000   0.000000   0.000000   0.000141   0.000000
    11  C    0.361089  -0.000052   0.000003   0.000005   0.001978  -0.000085
    12  H   -0.024344   0.000000   0.000000   0.000000   0.000000   0.000000
    13  H    0.504890   0.000000   0.000000   0.000000  -0.000008   0.000000
    14  O    0.000000   8.060950   0.297018   0.298419  -0.000103   0.000025
    15  H    0.000000   0.297018   0.391589  -0.015050   0.000130   0.000033
    16  H    0.000000   0.298419  -0.015050   0.394804   0.000010   0.000000
    17  O   -0.000008  -0.000103   0.000130   0.000010   8.139244   0.283190
    18  H    0.000000   0.000025   0.000033   0.000000   0.283190   0.342813
    19  H    0.000000   0.000002   0.000000   0.000000   0.298880  -0.012409
    20  O   -0.000004   0.000030   0.000000   0.000126  -0.000042   0.000001
    21  H    0.000000   0.000023   0.000001   0.000045   0.000001   0.000000
    22  H    0.000000  -0.000002   0.000000   0.000001   0.000000   0.000000
    23  S    0.000055   0.000883   0.000311   0.000580  -0.008207  -0.000694
    24  I    0.000000  -0.000211  -0.000065  -0.000084  -0.000281  -0.000018
             19         20         21         22         23         24
     1  C    0.001561  -0.008964  -0.003200  -0.001140   0.017088   0.002045
     2  H    0.000000   0.008647   0.000275  -0.000250   0.000578  -0.000024
     3  H    0.000000  -0.000021   0.000005   0.000002  -0.000597   0.000002
     4  N    0.003048   0.002097  -0.001736  -0.000751  -0.023916   0.001265
     5  H   -0.000359   0.000026   0.000001   0.000000  -0.001948  -0.000004
     6  P    0.007535  -0.008314   0.018933   0.012984   0.015860  -0.030742
     7  O    0.005414  -0.000968  -0.000812  -0.000153  -0.023809   0.013688
     8  O   -0.000070  -0.043765   0.021845   0.004776   0.032520  -0.000510
     9  C   -0.001098  -0.003313  -0.001286   0.000664   0.060054  -0.008314
    10  H    0.000000   0.000141  -0.000010  -0.000017   0.003018   0.000025
    11  C   -0.000057   0.000005   0.000085   0.000328  -0.014373  -0.000051
    12  H    0.000000   0.000008   0.000000   0.000000   0.000104   0.000000
    13  H    0.000000  -0.000004   0.000000   0.000000   0.000055   0.000000
    14  O    0.000002   0.000030   0.000023  -0.000002   0.000883  -0.000211
    15  H    0.000000   0.000000   0.000001   0.000000   0.000311  -0.000065
    16  H    0.000000   0.000126   0.000045   0.000001   0.000580  -0.000084
    17  O    0.298880  -0.000042   0.000001   0.000000  -0.008207  -0.000281
    18  H   -0.012409   0.000001   0.000000   0.000000  -0.000694  -0.000018
    19  H    0.411487   0.000000   0.000000   0.000000  -0.001316  -0.000005
    20  O    0.000000   8.115842   0.284305   0.296362  -0.005654   0.002127
    21  H    0.000000   0.284305   0.339975  -0.015073   0.000029   0.000269
    22  H    0.000000   0.296362  -0.015073   0.426381  -0.000441  -0.000072
    23  S   -0.001316  -0.005654   0.000029  -0.000441  16.353768  -0.049967
    24  I   -0.000005   0.002127   0.000269  -0.000072  -0.049967  17.091829
 Mulliken atomic charges:
              1
     1  C   -0.220063
     2  H    0.182226
     3  H    0.212014
     4  N   -0.418441
     5  H    0.232050
     6  P    1.327563
     7  O   -1.000893
     8  O   -0.980693
     9  C    0.143556
    10  H    0.134348
    11  C   -0.502915
    12  H    0.141977
    13  H    0.134810
    14  O   -0.601437
    15  H    0.301196
    16  H    0.299557
    17  O   -0.645789
    18  H    0.354317
    19  H    0.287386
    20  O   -0.638670
    21  H    0.356327
    22  H    0.276401
    23  S   -0.353927
    24  I   -0.020900
 Sum of Mulliken charges=  -1.00000
 Atomic charges with hydrogens summed into heavy atoms:
              1
     1  C    0.174178
     2  H    0.000000
     3  H    0.000000
     4  N   -0.186390
     5  H    0.000000
     6  P    1.327563
     7  O   -1.000893
     8  O   -0.980693
     9  C    0.277904
    10  H    0.000000
    11  C   -0.226128
    12  H    0.000000
    13  H    0.000000
    14  O   -0.000683
    15  H    0.000000
    16  H    0.000000
    17  O   -0.004086
    18  H    0.000000
    19  H    0.000000
    20  O   -0.005943
    21  H    0.000000
    22  H    0.000000
    23  S   -0.353927
    24  I   -0.020900
 Sum of Mulliken charges=  -1.00000
 Electronic spatial extent (au):  <R**2>=  4413.4870
 Charge=    -1.0000 electrons
 Dipole moment (field-independent basis, Debye):
    X=    -0.9021    Y=    -8.0112    Z=    -5.4238  Tot=     9.7165
 Quadrupole moment (field-independent basis, Debye-Ang):
   XX=  -110.6538   YY=  -149.8134   ZZ=  -139.9642
   XY=    -3.5120   XZ=     3.7214   YZ=     1.9679
 Traceless Quadrupole moment (field-independent basis, Debye-Ang):
   XX=    22.8233   YY=   -16.3363   ZZ=    -6.4871
   XY=    -3.5120   XZ=     3.7214   YZ=     1.9679
 Octapole moment (field-independent basis, Debye-Ang**2):
  XXX=  -141.6836  YYY=  -134.7161  ZZZ=   -86.9226  XYY=   -62.6539
  XXY=   -28.4807  XXZ=    17.4254  XZZ=   -68.0865  YZZ=   -18.9671
  YYZ=   -50.3215  XYZ=    37.3430
 Hexadecapole moment (field-independent basis, Debye-Ang**3):
 XXXX= -3116.9272 YYYY= -2246.8220 ZZZZ= -1439.2345 XXXY=    65.2312
 XXXZ=   107.5651 YYYX=   109.3112 YYYZ=  -121.1431 ZZZX=    59.7253
 ZZZY=    90.5981 XXYY=  -940.0165 XXZZ=  -857.1391 YYZZ=  -747.0677
 XXYZ=    69.5998 YYXZ=    55.0762 ZZXY=    10.0762
 N-N= 1.119036985922D+03 E-N=-5.577048261613D+03  KE= 1.359658887102D+03
 Calculating spin-rotation constants.
 Leave Link  601 at Sat Aug  2 18:43:13 2008, MaxMem= 1073741824 cpu:     141.5
 (Enter /usr/local/Chem-Apps/g03_d01/g03/l9999.exe)
 1\1\ SGI ALTIX 4700 1.6GHZ/9MB-MAGELLAN\SP\RB3LYP\Gen\C3H12I1N1O5P1S1(
 1-)\IK1\02-Aug-2008\0\\#p nmr=giao b3lyp/Gen scf=tight integral=(grid=
 ultrafine) pseudo=read scrf=(pcm,solvent=water,read) guess=read geom=c
 heckpoint\\Molecule 9, NMR.\\-1,1\C,0,-2.021243953,0.0537226232,0.5183
 455307\H,0,-1.8652238485,1.1024008874,0.2294435452\H,0,-2.5280464215,0
 .0557831894,1.4983605921\N,0,-0.7063573535,-0.5661894123,0.6381137921\
 H,0,-0.6581988388,-1.5649812225,0.8213433941\P,0,0.7729972299,0.162868
 3474,0.240218319\O,0,1.9067835837,-0.6832069093,0.8345521889\O,0,0.719
 9558152,1.6798267328,0.4306878539\C,0,-2.8951811402,-0.6313957557,-0.4
 998495257\H,0,-2.4841965214,-0.6768462866,-1.5131149028\C,0,-4.0899198
 921,-1.1732082466,-0.2392228476\H,0,-4.6838915516,-1.6534833406,-1.018
 189511\H,0,-4.5173231905,-1.1522210906,0.7663403769\O,0,3.1328086348,1
 .640441922,2.289029027\H,0,3.025215929,0.7210370992,1.9917233945\H,0,2
 .4115547433,2.067473783,1.7990000973\O,0,0.9645112845,-3.2517695449,1.
 0046244166\H,0,1.4224856704,-2.3748362446,1.0010826493\H,0,1.145972809
 1,-3.6025605296,0.1252369862\O,0,-0.8803490039,3.2645123853,-1.2012334
 6\H,0,-0.2903833475,2.7728653438,-0.5862555561\H,0,-0.6726122404,2.866
 7009206,-2.0549242003\S,0,0.6133378838,-0.2849035886,-1.9352331798\I,0
 ,2.5564410993,0.8118417377,-3.0160764404\\Version=IA64L-G03RevD.01\Sta
 te=1-A\HF=-1403.9009943\RMSD=4.298e-09\Thermal=0.\Dipole=-1.3849259,-1
 .3678918,-3.2900559\PG=C01 [X(C3H12I1N1O5P1S1)]\\@


 HEAVEN'S NET CASTS WIDE.
 THOUGH ITS MESHES ARE COARSE, NOTHING SLIPS THROUGH.

                                          -- LAO-TSU
 Job cpu time:  0 days  0 hours 10 minutes 58.4 seconds.
 File lengths (MBytes):  RWF=    303 Int=      0 D2E=      0 Chk=     23 Scr=      1
 Normal termination of Gaussian 03 at Sat Aug  2 18:43:14 2008.
