 Entering Gaussian System, Link 0=/usr/local/Chem-Apps/g03_d01/g03/g03
 Initial command:
 /usr/local/Chem-Apps/g03_d01/g03/l1.exe /scratch/LSF_64771/Gau-7193.inp -scrdir=/scratch/LSF_64771/
 Entering Link 1 = /usr/local/Chem-Apps/g03_d01/g03/l1.exe PID=      7194.
  
 Copyright (c) 1988,1990,1992,1993,1995,1998,2003,2004, Gaussian, Inc.
                  All Rights Reserved.
  
 This is the Gaussian(R) 03 program.  It is based on the
 the Gaussian(R) 98 system (copyright 1998, Gaussian, Inc.),
 the Gaussian(R) 94 system (copyright 1995, Gaussian, Inc.),
 the Gaussian 92(TM) system (copyright 1992, Gaussian, Inc.),
 the Gaussian 90(TM) system (copyright 1990, Gaussian, Inc.),
 the Gaussian 88(TM) system (copyright 1988, Gaussian, Inc.),
 the Gaussian 86(TM) system (copyright 1986, Carnegie Mellon
 University), and the Gaussian 82(TM) system (copyright 1983,
 Carnegie Mellon University). Gaussian is a federally registered
 trademark of Gaussian, Inc.
  
 This software contains proprietary and confidential information,
 including trade secrets, belonging to Gaussian, Inc.
  
 This software is provided under written license and may be
 used, copied, transmitted, or stored only in accord with that
 written license.
  
 The following legend is applicable only to US Government
 contracts under FAR:
  
                    RESTRICTED RIGHTS LEGEND
  
 Use, reproduction and disclosure by the US Government is
 subject to restrictions as set forth in subparagraphs (a)
 and (c) of the Commercial Computer Software - Restricted
 Rights clause in FAR 52.227-19.
  
 Gaussian, Inc.
 340 Quinnipiac St., Bldg. 40, Wallingford CT 06492
  
  
 ---------------------------------------------------------------
 Warning -- This program may not be used in any manner that
 competes with the business of Gaussian, Inc. or will provide
 assistance to any competitor of Gaussian, Inc.  The licensee
 of this program is prohibited from giving any competitor of
 Gaussian, Inc. access to this program.  By using this program,
 the user acknowledges that Gaussian, Inc. is engaged in the
 business of creating and licensing software in the field of
 computational chemistry and represents and warrants to the
 licensee that it is not a competitor of Gaussian, Inc. and that
 it will not use this program in any manner prohibited above.
 ---------------------------------------------------------------
  

 Cite this work as:
 Gaussian 03, Revision D.01,
 M. J. Frisch, G. W. Trucks, H. B. Schlegel, G. E. Scuseria, 
 M. A. Robb, J. R. Cheeseman, J. A. Montgomery, Jr., T. Vreven, 
 K. N. Kudin, J. C. Burant, J. M. Millam, S. S. Iyengar, J. Tomasi, 
 V. Barone, B. Mennucci, M. Cossi, G. Scalmani, N. Rega, 
 G. A. Petersson, H. Nakatsuji, M. Hada, M. Ehara, K. Toyota, 
 R. Fukuda, J. Hasegawa, M. Ishida, T. Nakajima, Y. Honda, O. Kitao, 
 H. Nakai, M. Klene, X. Li, J. E. Knox, H. P. Hratchian, J. B. Cross, 
 V. Bakken, C. Adamo, J. Jaramillo, R. Gomperts, R. E. Stratmann, 
 O. Yazyev, A. J. Austin, R. Cammi, C. Pomelli, J. W. Ochterski, 
 P. Y. Ayala, K. Morokuma, G. A. Voth, P. Salvador, J. J. Dannenberg, 
 V. G. Zakrzewski, S. Dapprich, A. D. Daniels, M. C. Strain, 
 O. Farkas, D. K. Malick, A. D. Rabuck, K. Raghavachari, 
 J. B. Foresman, J. V. Ortiz, Q. Cui, A. G. Baboul, S. Clifford, 
 J. Cioslowski, B. B. Stefanov, G. Liu, A. Liashenko, P. Piskorz, 
 I. Komaromi, R. L. Martin, D. J. Fox, T. Keith, M. A. Al-Laham, 
 C. Y. Peng, A. Nanayakkara, M. Challacombe, P. M. W. Gill, 
 B. Johnson, W. Chen, M. W. Wong, C. Gonzalez, and J. A. Pople, 
 Gaussian, Inc., Wallingford CT, 2004.
 
 ******************************************
 Gaussian 03:  IA64L-G03RevD.01 13-Oct-2005
                 9-Jul-2008 
 ******************************************
 %NProcShared=8
 Will use up to    8 processors via shared memory.
 %Mem=4GB
 %Chk=phosphamine_a.chk
 Default route:  MaxDisk=64GB Cachesize=589840
 ----------------------------------------------------------------------
 #p opt=gdiis b3lyp/cc-pVDZ scf=(tight,novaracc,noincfock) integral=(gr
 id=ultrafine) guess=read geom=checkpoint scrf=(pcm,solvent=water,read)
 ----------------------------------------------------------------------
 1/4=589840,14=-1,18=20,19=11,26=3,29=2,38=1,40=2/1,3;
 2/4=589840,9=110,40=1/2;
 3/4=589840,5=16,11=2,16=1,25=1,30=1,70=2203,71=1,72=1,74=-5,75=5/1,2,3;
 4/4=589840,5=1/1;
 5/4=589840,5=100002,32=2,38=6,53=1/2;
 6/4=589840,7=2,8=2,9=2,10=2,28=1/1;
 7/4=589840/1,2,3,16;
 1/4=589840,14=-1,18=20,19=11/3(3);
 2/4=589840,9=110/2;
 6/4=589840,7=2,8=2,9=2,10=2,19=2,28=1/1;
 99/4=589840/99;
 2/4=589840,9=110/2;
 3/4=589840,5=16,11=2,16=1,25=1,30=1,70=2205,71=1,72=1,74=-5,75=5/1,2,3;
 4/4=589840,5=5,16=3/1;
 5/4=589840,5=100002,32=2,38=1,53=1/2;
 7/4=589840/1,2,3,16;
 1/4=589840,14=-1,18=20,19=11/3(-5);
 2/4=589840,9=110/2;
 6/4=589840,7=2,8=2,9=2,10=2,19=2,28=1/1;
 99/4=589840,9=1/99;
 Leave Link    1 at Wed Jul  9 21:25:22 2008, MaxMem=  536870912 cpu:       1.6
 (Enter /usr/local/Chem-Apps/g03_d01/g03/l101.exe)
 -----------------------------
 Phosphamine form A, geometry.
 -----------------------------
 Redundant internal coordinates taken from checkpoint file:
 phosphamine_a.chk
 Charge = -2 Multiplicity = 1
 C,0,-1.3101869119,0.1812618871,0.3238227624
 H,0,-0.9795444183,-0.0796997259,1.3396652624
 H,0,-1.389608197,1.2841247724,0.2978286768
 C,0,-2.6502383703,-0.4324533107,0.0577295283
 H,0,-2.6309864845,-1.5208287267,0.0330973912
 C,0,-3.800628729,0.2007939009,-0.1957609862
 H,0,-3.8505186001,1.2855056985,-0.2144096253
 H,0,-4.7233672702,-0.3340003629,-0.4047582634
 N,0,-0.2998939652,-0.3763498107,-0.5514780886
 H,0,-0.392762283,0.0456581992,-1.4714677041
 P,0,1.4266441704,0.0259828515,0.0132454331
 O,0,1.483452254,1.5562753707,-0.1142181987
 O,0,2.2729587161,-0.7473670879,-0.9958875049
 O,0,1.394695298,-0.5072490934,1.4523411701
 Recover connectivity data from disk.
                    Isotopes and Nuclear Properties:
 (Nuclear quadrupole moments (NQMom) in fm**2, nuclear magnetic moments (NMagM)
  in nuclear magnetons)

  Atom         1           2           3           4           5           6           7           8           9          10
 IAtWgt=          12           1           1          12           1          12           1           1          14           1
 AtmWgt=  12.0000000   1.0078250   1.0078250  12.0000000   1.0078250  12.0000000   1.0078250   1.0078250  14.0030740   1.0078250
 NucSpn=           0           1           1           0           1           0           1           1           2           1
 AtZEff=  -3.6000000  -1.0000000  -1.0000000  -3.6000000  -1.0000000  -3.6000000  -1.0000000  -1.0000000  -4.5500000  -1.0000000
 NQMom=    0.0000000   0.0000000   0.0000000   0.0000000   0.0000000   0.0000000   0.0000000   0.0000000   2.0440000   0.0000000
 NMagM=    0.0000000   2.7928460   2.7928460   0.0000000   2.7928460   0.0000000   2.7928460   2.7928460   0.4037610   2.7928460

  Atom        11          12          13          14
 IAtWgt=          31          16          16          16
 AtmWgt=  30.9737634  15.9949146  15.9949146  15.9949146
 NucSpn=           1           0           0           0
 AtZEff= -12.9400000  -5.6000000  -5.6000000  -5.6000000
 NQMom=    0.0000000   0.0000000   0.0000000   0.0000000
 NMagM=    1.1316000   0.0000000   0.0000000   0.0000000
 Leave Link  101 at Wed Jul  9 21:25:22 2008, MaxMem=  536870912 cpu:       0.4
 (Enter /usr/local/Chem-Apps/g03_d01/g03/l103.exe)

 GradGradGradGradGradGradGradGradGradGradGradGradGradGradGradGradGradGrad
 Berny optimization.
 Initialization pass.
                           ----------------------------
                           !    Initial Parameters    !
                           ! (Angstroms and Degrees)  !
 --------------------------                            --------------------------
 ! Name  Definition              Value          Derivative Info.                !
 --------------------------------------------------------------------------------
 ! R1    R(1,2)                  1.0997         estimate D2E/DX2                !
 ! R2    R(1,3)                  1.106          estimate D2E/DX2                !
 ! R3    R(1,4)                  1.4977         estimate D2E/DX2                !
 ! R4    R(1,9)                  1.4484         estimate D2E/DX2                !
 ! R5    R(4,5)                  1.0888         estimate D2E/DX2                !
 ! R6    R(4,6)                  1.3374         estimate D2E/DX2                !
 ! R7    R(6,7)                  1.086          estimate D2E/DX2                !
 ! R8    R(6,8)                  1.0868         estimate D2E/DX2                !
 ! R9    R(9,10)                 1.0164         estimate D2E/DX2                !
 ! R10   R(9,11)                 1.8606         estimate D2E/DX2                !
 ! R11   R(11,12)                1.5366         estimate D2E/DX2                !
 ! R12   R(11,13)                1.5273         estimate D2E/DX2                !
 ! R13   R(11,14)                1.535          estimate D2E/DX2                !
 ! A1    A(2,1,3)              106.2556         estimate D2E/DX2                !
 ! A2    A(2,1,4)              109.6266         estimate D2E/DX2                !
 ! A3    A(2,1,9)              104.9018         estimate D2E/DX2                !
 ! A4    A(3,1,4)              109.8872         estimate D2E/DX2                !
 ! A5    A(3,1,9)              114.8206         estimate D2E/DX2                !
 ! A6    A(4,1,9)              111.0374         estimate D2E/DX2                !
 ! A7    A(1,4,5)              113.4404         estimate D2E/DX2                !
 ! A8    A(1,4,6)              127.5363         estimate D2E/DX2                !
 ! A9    A(5,4,6)              118.961          estimate D2E/DX2                !
 ! A10   A(4,6,7)              121.0435         estimate D2E/DX2                !
 ! A11   A(4,6,8)              122.2606         estimate D2E/DX2                !
 ! A12   A(7,6,8)              116.6914         estimate D2E/DX2                !
 ! A13   A(1,9,10)             108.8702         estimate D2E/DX2                !
 ! A14   A(1,9,11)             112.3714         estimate D2E/DX2                !
 ! A15   A(10,9,11)            105.6483         estimate D2E/DX2                !
 ! A16   A(9,11,12)            102.9721         estimate D2E/DX2                !
 ! A17   A(9,11,13)            101.7807         estimate D2E/DX2                !
 ! A18   A(9,11,14)            100.9598         estimate D2E/DX2                !
 ! A19   A(12,11,13)           115.4018         estimate D2E/DX2                !
 ! A20   A(12,11,14)           115.1172         estimate D2E/DX2                !
 ! A21   A(13,11,14)           117.0694         estimate D2E/DX2                !
 ! D1    D(2,1,4,5)            -65.7278         estimate D2E/DX2                !
 ! D2    D(2,1,4,6)            117.2011         estimate D2E/DX2                !
 ! D3    D(3,1,4,5)            177.8466         estimate D2E/DX2                !
 ! D4    D(3,1,4,6)              0.7756         estimate D2E/DX2                !
 ! D5    D(9,1,4,5)             49.7194         estimate D2E/DX2                !
 ! D6    D(9,1,4,6)           -127.3516         estimate D2E/DX2                !
 ! D7    D(2,1,9,10)          -163.9825         estimate D2E/DX2                !
 ! D8    D(2,1,9,11)           -47.3074         estimate D2E/DX2                !
 ! D9    D(3,1,9,10)           -47.7367         estimate D2E/DX2                !
 ! D10   D(3,1,9,11)            68.9384         estimate D2E/DX2                !
 ! D11   D(4,1,9,10)            77.6744         estimate D2E/DX2                !
 ! D12   D(4,1,9,11)          -165.6505         estimate D2E/DX2                !
 ! D13   D(1,4,6,7)             -0.915          estimate D2E/DX2                !
 ! D14   D(1,4,6,8)            178.2794         estimate D2E/DX2                !
 ! D15   D(5,4,6,7)           -177.8435         estimate D2E/DX2                !
 ! D16   D(5,4,6,8)              1.3509         estimate D2E/DX2                !
 ! D17   D(1,9,11,12)          -64.1491         estimate D2E/DX2                !
 ! D18   D(1,9,11,13)          176.0021         estimate D2E/DX2                !
 ! D19   D(1,9,11,14)           55.0791         estimate D2E/DX2                !
 ! D20   D(10,9,11,12)          54.4385         estimate D2E/DX2                !
 ! D21   D(10,9,11,13)         -65.4103         estimate D2E/DX2                !
 ! D22   D(10,9,11,14)         173.6667         estimate D2E/DX2                !
 --------------------------------------------------------------------------------
 Trust Radius=3.00D-01 FncErr=1.00D-07 GrdErr=1.00D-06
 Number of steps in this run=  66 maximum allowed number of steps= 100.
 GradGradGradGradGradGradGradGradGradGradGradGradGradGradGradGradGradGrad

 Leave Link  103 at Wed Jul  9 21:25:22 2008, MaxMem=  536870912 cpu:       0.4
 (Enter /usr/local/Chem-Apps/g03_d01/g03/l202.exe)
                          Input orientation:                          
 ---------------------------------------------------------------------
 Center     Atomic     Atomic              Coordinates (Angstroms)
 Number     Number      Type              X           Y           Z
 ---------------------------------------------------------------------
    1          6             0       -1.310187    0.181262    0.323823
    2          1             0       -0.979544   -0.079700    1.339665
    3          1             0       -1.389608    1.284125    0.297829
    4          6             0       -2.650238   -0.432453    0.057730
    5          1             0       -2.630986   -1.520829    0.033097
    6          6             0       -3.800629    0.200794   -0.195761
    7          1             0       -3.850519    1.285506   -0.214410
    8          1             0       -4.723367   -0.334000   -0.404758
    9          7             0       -0.299894   -0.376350   -0.551478
   10          1             0       -0.392762    0.045658   -1.471468
   11         15             0        1.426644    0.025983    0.013245
   12          8             0        1.483452    1.556275   -0.114218
   13          8             0        2.272959   -0.747367   -0.995888
   14          8             0        1.394695   -0.507249    1.452341
 ---------------------------------------------------------------------
                    Distance matrix (angstroms):
                    1          2          3          4          5
     1  C    0.000000
     2  H    1.099710   0.000000
     3  H    1.106024   1.764538   0.000000
     4  C    1.497728   2.135184   2.143240   0.000000
     5  H    2.173970   2.551712   3.078777   1.088824   0.000000
     6  C    2.544140   3.224085   2.688914   1.337407   2.093902
     7  H    2.821761   3.538563   2.513657   2.113319   3.069859
     8  H    3.527907   4.138102   3.771725   2.126370   2.445064
     9  N    1.448370   2.031342   2.160087   2.428662   2.661870
    10  H    2.020674   2.874456   2.378636   2.768255   3.118853
    11  P    2.758770   2.749600   3.097610   4.102818   4.342509
    12  O    3.144354   3.294927   2.915189   4.590425   5.139930
    13  O    3.929748   4.059478   4.383498   5.044517   5.070082
    14  O    3.010646   2.415059   3.506318   4.279255   4.387221
                    6          7          8          9         10
     6  C    0.000000
     7  H    1.086019   0.000000
     8  H    1.086799   1.849567   0.000000
     9  N    3.565778   3.934757   4.426108   0.000000
    10  H    3.642121   3.882460   4.476176   1.016413   0.000000
    11  P    5.234370   5.430163   6.174703   1.860569   2.348404
    12  O    5.455776   5.341779   6.494780   2.665813   2.764828
    13  O    6.199006   6.499250   7.033412   2.637181   2.821548
    14  O    5.496268   5.788290   6.396055   2.627558   3.471220
                   11         12         13         14
    11  P    0.000000
    12  O    1.536642   0.000000
    13  O    1.527307   2.589871   0.000000
    14  O    1.535042   2.592319   2.612054   0.000000
 Stoichiometry    C3H6NO3P(2-)
 Framework group  C1[X(C3H6NO3P)]
 Deg. of freedom    36
 Full point group                 C1
 Largest Abelian subgroup         C1      NOp   1
 Largest concise Abelian subgroup C1      NOp   1
                         Standard orientation:                         
 ---------------------------------------------------------------------
 Center     Atomic     Atomic              Coordinates (Angstroms)
 Number     Number      Type              X           Y           Z
 ---------------------------------------------------------------------
    1          6             0       -1.308747    0.188451    0.323170
    2          1             0       -0.975779   -0.031594    1.347901
    3          1             0       -1.386765    1.289467    0.252693
    4          6             0       -2.650313   -0.433616    0.085630
    5          1             0       -2.632578   -1.522122    0.105091
    6          6             0       -3.800521    0.190491   -0.190357
    7          1             0       -3.849012    1.273626   -0.252835
    8          1             0       -4.724519   -0.351006   -0.375123
    9          7             0       -0.301508   -0.405638   -0.531407
   10          1             0       -0.396236   -0.021136   -1.467506
   11         15             0        1.427047    0.016769    0.012089
   12          8             0        1.485560    1.540554   -0.177452
   13          8             0        2.269668   -0.798069   -0.967041
   14          8             0        1.398177   -0.457643    1.471697
 ---------------------------------------------------------------------
 Rotational constants (GHZ):      4.1150447      0.8460207      0.8423848
 Leave Link  202 at Wed Jul  9 21:25:23 2008, MaxMem=  536870912 cpu:       0.3
 (Enter /usr/local/Chem-Apps/g03_d01/g03/l301.exe)
 Standard basis: CC-pVDZ (5D, 7F)
 There are   146 symmetry adapted basis functions of A   symmetry.
 Integral buffers will be    131072 words long.
 Raffenetti 2 integral format.
 Two-electron integral symmetry is turned on.
   146 basis functions,   346 primitive gaussians,   154 cartesian basis functions
    36 alpha electrons       36 beta electrons
       nuclear repulsion energy       459.3636161217 Hartrees.
 IExCor= 402 DFT=T Ex=B+HF Corr=LYP ExCW=0 ScaHFX=  0.200000
 ScaDFX=  0.800000  0.720000  1.000000  0.810000
 IRadAn=      5 IRanWt=     -1 IRanGd=            0 ICorTp=0
 NAtoms=   14 NActive=   14 NUniq=   14 SFac= 7.50D-01 NAtFMM=   80 NAOKFM=F Big=F
 Using the following non-standard input for PCM:
 RADII=UAKS
 TSARE=0.05
 --- end of non-standard input.
 ------------------------------------------------------------------------------
 United Atom Topological Model (UAKS parameters set).
  Nord Group  Hybr  Charge Alpha Radius          Bonded to
    1   CH2   sp3  -0.25   1.20  1.515   C4   [s]  N9   [s]
    4   CH    sp2  -0.25   1.20  1.785   C1   [s]  C6   [d]
    6   CH2   sp2  -0.25   1.20  1.965   C4   [d]
    9   NH    sp3  -0.25   1.20  1.588   C1   [s]  P11  [s]
   11   P     sp3  -0.25   1.20  1.905   N9   [s]  O12  [d]  O13  [d]  O14  [d]
   12   O     sp2  -0.25   1.20  1.560   P11  [d]
   13   O     sp2  -0.25   1.20  1.560   P11  [d]
   14   O     sp2  -0.25   1.20  1.560   P11  [d]
 ------------------------------------------------------------------------------
 Polarizable Continuum Model (PCM)
 =================================
 Model                : PCM.
 Atomic radii         : UAKS (United Atom Topological Model).
 Polarization charges : Total charges.
 Charge compensation  : None.
 Solution method      : Matrix inversion.
 Cavity               : GePol (RMin=0.200 OFac=0.890).
                        Default sphere list used, NSphG=    8.
                        Tesserae with average area of 0.050 Ang**2.
 1st derivatives      : Analytical V*U(x)*V algorithm (CHGder, D1EAlg=0).
                        Cavity 1st derivative terms included.
 Solvent              : Water, Eps     =  78.390000
                               Eps(inf)=   1.776000
                               RSolv   =   1.385000 Ang.
 ------------------------------------------------------------------------------
 GePol: Number of tesserae being generated         =    4265
 GePol: Average area of tesserae                   =       0.04 Ang**2
 GePol: Minimum area of tessera                    =   0.10D-02 Ang**2
 GePol: Maximum area of tessera                    =    0.07633 Ang**2
 GePol: Number of small tesserae                   =       0
 GePol: Fraction of small tesserae (<1% of avg)    =       0.00%
 GePol: Total count of vertices                    =   13895
 GePol: Maximum number of vertices in a tessera    =       6
 GePol: Cavity surface area                        =    172.773 Ang**2
 GePol: Cavity volume                              =    164.021 Ang**3
 GePol: Maximum number of non-zero 1st derivatives =    1193
 Leave Link  301 at Wed Jul  9 21:25:24 2008, MaxMem=  536870912 cpu:       1.9
 (Enter /usr/local/Chem-Apps/g03_d01/g03/l302.exe)
 NPDir=0 NMtPBC=     1 NCelOv=     1 NCel=       1 NClECP=     1 NCelD=      1
         NCelK=      1 NCelE2=     1 NClLst=     1 CellRange=     0.0.
 One-electron integrals computed using PRISM.
 NBasis=   146 RedAO= T  NBF=   146
 NBsUse=   146 1.00D-06 NBFU=   146
 Precomputing XC quadrature grid using
 IXCGrd= 2 IRadAn=           5 IRanWt=          -1 IRanGd=           0.
 NRdTot=    1162 NPtTot=      311104 NUsed=      319295 NTot=      319327
 NSgBfM=   154   154   154   154.
 Leave Link  302 at Wed Jul  9 21:25:24 2008, MaxMem=  536870912 cpu:       3.0
 (Enter /usr/local/Chem-Apps/g03_d01/g03/l303.exe)
 DipDrv:  MaxL=1.
 Leave Link  303 at Wed Jul  9 21:25:24 2008, MaxMem=  536870912 cpu:       0.3
 (Enter /usr/local/Chem-Apps/g03_d01/g03/l401.exe)
 Initial guess read from the checkpoint file:
 phosphamine_a.chk
 Guess basis will be translated and rotated to current coordinates.
 Initial guess orbital symmetries:
       Occupied  (A) (A) (A) (A) (A) (A) (A) (A) (A) (A) (A) (A)
                 (A) (A) (A) (A) (A) (A) (A) (A) (A) (A) (A) (A)
                 (A) (A) (A) (A) (A) (A) (A) (A) (A) (A) (A) (A)
       Virtual   (A) (A) (A) (A) (A) (A) (A) (A) (A) (A) (A) (A)
                 (A) (A) (A) (A) (A) (A) (A) (A) (A) (A) (A) (A)
                 (A) (A) (A) (A) (A) (A) (A) (A) (A) (A) (A) (A)
                 (A) (A) (A) (A) (A) (A) (A) (A) (A) (A) (A) (A)
                 (A) (A) (A) (A) (A) (A) (A) (A) (A) (A) (A) (A)
                 (A) (A) (A) (A) (A) (A) (A) (A) (A) (A) (A) (A)
                 (A) (A) (A) (A) (A) (A) (A) (A) (A) (A) (A) (A)
                 (A) (A) (A) (A) (A) (A) (A) (A) (A) (A) (A) (A)
                 (A) (A) (A) (A) (A) (A) (A) (A) (A) (A) (A) (A)
                 (A) (A)
 The electronic state of the initial guess is 1-A.
 Leave Link  401 at Wed Jul  9 21:25:25 2008, MaxMem=  536870912 cpu:       1.4
 (Enter /usr/local/Chem-Apps/g03_d01/g03/l502.exe)
 Closed shell SCF:
 Requested convergence on RMS density matrix=1.00D-08 within 128 cycles.
 Requested convergence on MAX density matrix=1.00D-06.
 Requested convergence on             energy=1.00D-06.
 No special actions if energy rises.
 Using DIIS extrapolation, IDIIS=  1040.
 Integral symmetry usage will be decided dynamically.
       319294 words used for storage of precomputed grid.
 Keep R1 integrals in memory in canonical form, NReq=    90775670.
 IEnd=    421729 IEndB=    421729 NGot= 536870912 MDV= 465261600
 LenX= 465261600
 Symmetry not used in FoFDir.
 MinBra= 0 MaxBra= 2 Meth= 1.
 IRaf=       0 NMat=   1 IRICut=       1 DoRegI=T DoRafI=F ISym2E= 0 JSym2E=0.

 Cycle   1  Pass 1  IDiag  1:
 E= -739.986307198399    
 DIIS: error= 1.13D-02 at cycle   1 NSaved=   1.
 NSaved= 1 IEnMin= 1 EnMin= -739.986307198399     IErMin= 1 ErrMin= 1.13D-02
 ErrMax= 1.13D-02 EMaxC= 1.00D-01 BMatC= 2.06D-02 BMatP= 2.06D-02
 IDIUse=3 WtCom= 8.87D-01 WtEn= 1.13D-01
 Coeff-Com:  0.100D+01
 Coeff-En:   0.100D+01
 Coeff:      0.100D+01
 Gap=     0.201 Goal=   None    Shift=    0.000
 GapD=    0.201 DampG=1.000 DampE=0.500 DampFc=0.5000 IDamp=-1.
 Damping current iteration by 5.00D-01
 RMSDP=2.89D-03 MaxDP=5.36D-02              OVMax= 3.61D-02

 Cycle   2  Pass 1  IDiag  1:
 E= -739.996711553956     Delta-E=       -0.010404355557 Rises=F Damp=T
 DIIS: error= 5.57D-03 at cycle   2 NSaved=   2.
 NSaved= 2 IEnMin= 2 EnMin= -739.996711553956     IErMin= 2 ErrMin= 5.57D-03
 ErrMax= 5.57D-03 EMaxC= 1.00D-01 BMatC= 4.12D-03 BMatP= 2.06D-02
 IDIUse=3 WtCom= 9.44D-01 WtEn= 5.57D-02
 Coeff-Com: -0.388D+00 0.139D+01
 Coeff-En:   0.000D+00 0.100D+01
 Coeff:     -0.366D+00 0.137D+01
 Gap=     0.172 Goal=   None    Shift=    0.000
 RMSDP=1.20D-03 MaxDP=1.80D-02 DE=-1.04D-02 OVMax= 1.98D-02

 Cycle   3  Pass 1  IDiag  1:
 E= -740.005732123899     Delta-E=       -0.009020569943 Rises=F Damp=F
 DIIS: error= 6.44D-03 at cycle   3 NSaved=   3.
 NSaved= 3 IEnMin= 3 EnMin= -740.005732123899     IErMin= 2 ErrMin= 5.57D-03
 ErrMax= 6.44D-03 EMaxC= 1.00D-01 BMatC= 2.35D-03 BMatP= 4.12D-03
 IDIUse=3 WtCom= 9.36D-01 WtEn= 6.44D-02
 Coeff-Com: -0.349D+00 0.759D+00 0.590D+00
 Coeff-En:   0.000D+00 0.000D+00 0.100D+01
 Coeff:     -0.326D+00 0.710D+00 0.616D+00
 Gap=     0.181 Goal=   None    Shift=    0.000
 RMSDP=2.94D-04 MaxDP=7.65D-03 DE=-9.02D-03 OVMax= 7.61D-03

 Cycle   4  Pass 1  IDiag  1:
 E= -740.007261119864     Delta-E=       -0.001528995965 Rises=F Damp=F
 DIIS: error= 1.02D-03 at cycle   4 NSaved=   4.
 NSaved= 4 IEnMin= 4 EnMin= -740.007261119864     IErMin= 4 ErrMin= 1.02D-03
 ErrMax= 1.02D-03 EMaxC= 1.00D-01 BMatC= 1.88D-04 BMatP= 2.35D-03
 IDIUse=3 WtCom= 9.90D-01 WtEn= 1.02D-02
 Coeff-Com: -0.136D+00 0.279D+00 0.320D+00 0.536D+00
 Coeff-En:   0.000D+00 0.000D+00 0.106D-01 0.989D+00
 Coeff:     -0.134D+00 0.276D+00 0.317D+00 0.541D+00
 Gap=     0.180 Goal=   None    Shift=    0.000
 RMSDP=9.16D-05 MaxDP=3.42D-03 DE=-1.53D-03 OVMax= 2.38D-03

 Cycle   5  Pass 1  IDiag  1:
 E= -740.007412470573     Delta-E=       -0.000151350709 Rises=F Damp=F
 DIIS: error= 1.71D-04 at cycle   5 NSaved=   5.
 NSaved= 5 IEnMin= 5 EnMin= -740.007412470573     IErMin= 5 ErrMin= 1.71D-04
 ErrMax= 1.71D-04 EMaxC= 1.00D-01 BMatC= 8.39D-06 BMatP= 1.88D-04
 IDIUse=3 WtCom= 9.98D-01 WtEn= 1.71D-03
 Coeff-Com: -0.382D-01 0.741D-01 0.103D+00 0.251D+00 0.611D+00
 Coeff-En:   0.000D+00 0.000D+00 0.000D+00 0.000D+00 0.100D+01
 Coeff:     -0.381D-01 0.740D-01 0.102D+00 0.250D+00 0.611D+00
 Gap=     0.180 Goal=   None    Shift=    0.000
 RMSDP=2.49D-05 MaxDP=8.17D-04 DE=-1.51D-04 OVMax= 8.50D-04

 Cycle   6  Pass 1  IDiag  1:
 E= -740.007418346179     Delta-E=       -0.000005875607 Rises=F Damp=F
 DIIS: error= 7.93D-05 at cycle   6 NSaved=   6.
 NSaved= 6 IEnMin= 6 EnMin= -740.007418346179     IErMin= 6 ErrMin= 7.93D-05
 ErrMax= 7.93D-05 EMaxC= 1.00D-01 BMatC= 1.65D-06 BMatP= 8.39D-06
 IDIUse=1 WtCom= 1.00D+00 WtEn= 0.00D+00
 Coeff-Com: -0.861D-02 0.145D-01 0.258D-01 0.870D-01 0.358D+00 0.523D+00
 Coeff:     -0.861D-02 0.145D-01 0.258D-01 0.870D-01 0.358D+00 0.523D+00
 Gap=     0.180 Goal=   None    Shift=    0.000
 RMSDP=7.87D-06 MaxDP=2.69D-04 DE=-5.88D-06 OVMax= 2.89D-04

 Cycle   7  Pass 1  IDiag  1:
 E= -740.007419801941     Delta-E=       -0.000001455762 Rises=F Damp=F
 DIIS: error= 7.70D-06 at cycle   7 NSaved=   7.
 NSaved= 7 IEnMin= 7 EnMin= -740.007419801941     IErMin= 7 ErrMin= 7.70D-06
 ErrMax= 7.70D-06 EMaxC= 1.00D-01 BMatC= 1.38D-08 BMatP= 1.65D-06
 IDIUse=1 WtCom= 1.00D+00 WtEn= 0.00D+00
 Coeff-Com: -0.623D-03 0.734D-03 0.155D-02 0.931D-02 0.596D-01 0.123D+00
 Coeff-Com:  0.806D+00
 Coeff:     -0.623D-03 0.734D-03 0.155D-02 0.931D-02 0.596D-01 0.123D+00
 Coeff:      0.806D+00
 Gap=     0.180 Goal=   None    Shift=    0.000
 RMSDP=1.39D-06 MaxDP=6.36D-05 DE=-1.46D-06 OVMax= 9.73D-05

 Cycle   8  Pass 1  IDiag  1:
 E= -740.007419806274     Delta-E=       -0.000000004332 Rises=F Damp=F
 DIIS: error= 7.94D-06 at cycle   8 NSaved=   8.
 NSaved= 8 IEnMin= 8 EnMin= -740.007419806274     IErMin= 7 ErrMin= 7.70D-06
 ErrMax= 7.94D-06 EMaxC= 1.00D-01 BMatC= 1.17D-08 BMatP= 1.38D-08
 IDIUse=1 WtCom= 1.00D+00 WtEn= 0.00D+00
 Coeff-Com:  0.725D-03-0.143D-02-0.245D-02-0.533D-02-0.697D-02 0.132D-01
 Coeff-Com:  0.526D+00 0.477D+00
 Coeff:      0.725D-03-0.143D-02-0.245D-02-0.533D-02-0.697D-02 0.132D-01
 Coeff:      0.526D+00 0.477D+00
 Gap=     0.180 Goal=   None    Shift=    0.000
 RMSDP=6.41D-07 MaxDP=2.62D-05 DE=-4.33D-09 OVMax= 5.17D-05

 Cycle   9  Pass 1  IDiag  1:
 E= -740.007419817672     Delta-E=       -0.000000011399 Rises=F Damp=F
 DIIS: error= 8.78D-07 at cycle   9 NSaved=   9.
 NSaved= 9 IEnMin= 9 EnMin= -740.007419817672     IErMin= 9 ErrMin= 8.78D-07
 ErrMax= 8.78D-07 EMaxC= 1.00D-01 BMatC= 2.01D-10 BMatP= 1.17D-08
 IDIUse=1 WtCom= 1.00D+00 WtEn= 0.00D+00
 Coeff-Com:  0.325D-03-0.613D-03-0.109D-02-0.262D-02-0.575D-02-0.117D-02
 Coeff-Com:  0.168D+00 0.191D+00 0.653D+00
 Coeff:      0.325D-03-0.613D-03-0.109D-02-0.262D-02-0.575D-02-0.117D-02
 Coeff:      0.168D+00 0.191D+00 0.653D+00
 Gap=     0.180 Goal=   None    Shift=    0.000
 RMSDP=1.29D-07 MaxDP=2.86D-06 DE=-1.14D-08 OVMax= 4.44D-06

 Cycle  10  Pass 1  IDiag  1:
 E= -740.007419817849     Delta-E=       -0.000000000177 Rises=F Damp=F
 DIIS: error= 3.43D-07 at cycle  10 NSaved=  10.
 NSaved=10 IEnMin=10 EnMin= -740.007419817849     IErMin=10 ErrMin= 3.43D-07
 ErrMax= 3.43D-07 EMaxC= 1.00D-01 BMatC= 2.91D-11 BMatP= 2.01D-10
 IDIUse=1 WtCom= 1.00D+00 WtEn= 0.00D+00
 Coeff-Com:  0.816D-04-0.148D-03-0.272D-03-0.699D-03-0.203D-02-0.204D-02
 Coeff-Com:  0.235D-01 0.378D-01 0.310D+00 0.634D+00
 Coeff:      0.816D-04-0.148D-03-0.272D-03-0.699D-03-0.203D-02-0.204D-02
 Coeff:      0.235D-01 0.378D-01 0.310D+00 0.634D+00
 Gap=     0.180 Goal=   None    Shift=    0.000
 RMSDP=4.15D-08 MaxDP=8.58D-07 DE=-1.77D-10 OVMax= 1.33D-06

 Cycle  11  Pass 1  IDiag  1:
 E= -740.007419817879     Delta-E=       -0.000000000030 Rises=F Damp=F
 DIIS: error= 1.53D-07 at cycle  11 NSaved=  11.
 NSaved=11 IEnMin=11 EnMin= -740.007419817879     IErMin=11 ErrMin= 1.53D-07
 ErrMax= 1.53D-07 EMaxC= 1.00D-01 BMatC= 2.80D-12 BMatP= 2.91D-11
 IDIUse=1 WtCom= 1.00D+00 WtEn= 0.00D+00
 Coeff-Com:  0.219D-04-0.386D-04-0.720D-04-0.197D-03-0.667D-03-0.942D-03
 Coeff-Com:  0.168D-02 0.729D-02 0.119D+00 0.328D+00 0.546D+00
 Coeff:      0.219D-04-0.386D-04-0.720D-04-0.197D-03-0.667D-03-0.942D-03
 Coeff:      0.168D-02 0.729D-02 0.119D+00 0.328D+00 0.546D+00
 Gap=     0.180 Goal=   None    Shift=    0.000
 RMSDP=1.27D-08 MaxDP=3.38D-07 DE=-2.98D-11 OVMax= 5.71D-07

 Cycle  12  Pass 1  IDiag  1:
 E= -740.007419817882     Delta-E=       -0.000000000003 Rises=F Damp=F
 DIIS: error= 5.91D-08 at cycle  12 NSaved=  12.
 NSaved=12 IEnMin=12 EnMin= -740.007419817882     IErMin=12 ErrMin= 5.91D-08
 ErrMax= 5.91D-08 EMaxC= 1.00D-01 BMatC= 5.14D-13 BMatP= 2.80D-12
 IDIUse=1 WtCom= 1.00D+00 WtEn= 0.00D+00
 Coeff-Com:  0.283D-06 0.144D-06-0.438D-06-0.920D-05-0.658D-04-0.213D-03
 Coeff-Com: -0.247D-02-0.137D-02 0.245D-01 0.104D+00 0.332D+00 0.544D+00
 Coeff:      0.283D-06 0.144D-06-0.438D-06-0.920D-05-0.658D-04-0.213D-03
 Coeff:     -0.247D-02-0.137D-02 0.245D-01 0.104D+00 0.332D+00 0.544D+00
 Gap=     0.180 Goal=   None    Shift=    0.000
 RMSDP=4.58D-09 MaxDP=1.03D-07 DE=-3.18D-12 OVMax= 1.53D-07

 Error on total polarization charges =  0.01804
 SCF Done:  E(RB+HF-LYP) =  -740.007419818     A.U. after   12 cycles
             Convg  =    0.4581D-08             -V/T =  2.0044
             S**2   =   0.0000
 KE= 7.367384620126D+02 PE=-2.694759073605D+03 EE= 7.586495756529D+02
 --------------------------------------------------------------------
 Variational PCM results
 =======================
 <psi(f)|   H    |psi(f)>                     (a.u.) =    -739.650324
 <psi(f)|H+V(f)/2|psi(f)>                     (a.u.) =    -740.007420
 Total free energy in solution:
  with all non electrostatic terms            (a.u.) =    -740.002859
 --------------------------------------------------------------------
 (Polarized solute)-Solvent               (kcal/mol) =    -224.08
 --------------------------------------------------------------------
 Cavitation energy                        (kcal/mol) =      17.84
 Dispersion energy                        (kcal/mol) =     -19.84
 Repulsion energy                         (kcal/mol) =       4.87
 Total non electrostatic                  (kcal/mol) =       2.86
 --------------------------------------------------------------------
 Partition over spheres:
 Sphere  on Atom  Surface  Charge   GEl     GCav    GDR
    1      C1       6.42  -0.048    2.75    1.45   -0.49
    2      C4      13.62   0.024   -2.03    1.87   -1.61
    3      C6      48.34   0.116   -7.57    4.20   -3.85
    4      N9       9.73   0.063   -8.36    1.74   -1.36
    5      P11      6.34   0.104  -12.66    1.21   -0.39
    6      O12     20.87   0.441  -50.64    2.46   -2.44
    7      O13     21.52   0.434  -50.39    2.45   -2.46
    8      O14     20.34   0.425  -49.27    2.46   -2.39
 Added spheres:    25.60   0.399  -45.92    0.00    0.00
 --------------------------------------------------------------------
 After PCM corrections, the SCF energy is  -740.007419818     a.u.
 --------------------------------------------------------------------
 Leave Link  502 at Wed Jul  9 21:34:08 2008, MaxMem=  536870912 cpu:     774.6
 (Enter /usr/local/Chem-Apps/g03_d01/g03/l601.exe)
 Copying SCF densities to generalized density rwf, ISCF=0 IROHF=0.

 **********************************************************************

            Population analysis using the SCF density.

 **********************************************************************

 Orbital symmetries:
       Occupied  (A) (A) (A) (A) (A) (A) (A) (A) (A) (A) (A) (A)
                 (A) (A) (A) (A) (A) (A) (A) (A) (A) (A) (A) (A)
                 (A) (A) (A) (A) (A) (A) (A) (A) (A) (A) (A) (A)
       Virtual   (A) (A) (A) (A) (A) (A) (A) (A) (A) (A) (A) (A)
                 (A) (A) (A) (A) (A) (A) (A) (A) (A) (A) (A) (A)
                 (A) (A) (A) (A) (A) (A) (A) (A) (A) (A) (A) (A)
                 (A) (A) (A) (A) (A) (A) (A) (A) (A) (A) (A) (A)
                 (A) (A) (A) (A) (A) (A) (A) (A) (A) (A) (A) (A)
                 (A) (A) (A) (A) (A) (A) (A) (A) (A) (A) (A) (A)
                 (A) (A) (A) (A) (A) (A) (A) (A) (A) (A) (A) (A)
                 (A) (A) (A) (A) (A) (A) (A) (A) (A) (A) (A) (A)
                 (A) (A) (A) (A) (A) (A) (A) (A) (A) (A) (A) (A)
                 (A) (A)
 The electronic state is 1-A.
 Alpha  occ. eigenvalues --  -77.09532 -18.98867 -18.98823 -18.98406 -14.23830
 Alpha  occ. eigenvalues --  -10.16687 -10.16481 -10.16115  -6.54424  -4.70815
 Alpha  occ. eigenvalues --   -4.70642  -4.70625  -0.90540  -0.82409  -0.81872
 Alpha  occ. eigenvalues --   -0.81504  -0.73911  -0.61791  -0.52885  -0.45454
 Alpha  occ. eigenvalues --   -0.43349  -0.40272  -0.38111  -0.36534  -0.32844
 Alpha  occ. eigenvalues --   -0.31168  -0.29667  -0.29546  -0.24454  -0.21681
 Alpha  occ. eigenvalues --   -0.21090  -0.21018  -0.18626  -0.18342  -0.15793
 Alpha  occ. eigenvalues --   -0.14850
 Alpha virt. eigenvalues --    0.03174   0.09826   0.11219   0.12954   0.14907
 Alpha virt. eigenvalues --    0.17325   0.18505   0.21349   0.25652   0.26867
 Alpha virt. eigenvalues --    0.28649   0.29929   0.32930   0.36334   0.45069
 Alpha virt. eigenvalues --    0.45487   0.47653   0.49584   0.51143   0.51724
 Alpha virt. eigenvalues --    0.53295   0.54236   0.56466   0.58436   0.61101
 Alpha virt. eigenvalues --    0.63475   0.65907   0.67689   0.68919   0.70025
 Alpha virt. eigenvalues --    0.71582   0.74237   0.77077   0.79136   0.82578
 Alpha virt. eigenvalues --    0.86089   0.87060   0.89215   0.91362   0.93354
 Alpha virt. eigenvalues --    0.97367   1.01464   1.05541   1.06618   1.08074
 Alpha virt. eigenvalues --    1.10695   1.11090   1.12422   1.13632   1.15926
 Alpha virt. eigenvalues --    1.17460   1.19515   1.25658   1.28031   1.29821
 Alpha virt. eigenvalues --    1.31122   1.32839   1.41052   1.43274   1.45994
 Alpha virt. eigenvalues --    1.49457   1.50784   1.56706   1.61990   1.64879
 Alpha virt. eigenvalues --    1.69045   1.70024   1.74005   1.75317   1.77753
 Alpha virt. eigenvalues --    1.85421   1.88858   1.92128   1.94102   1.95053
 Alpha virt. eigenvalues --    1.97832   2.00157   2.03073   2.08641   2.10760
 Alpha virt. eigenvalues --    2.15331   2.21170   2.25188   2.28525   2.32000
 Alpha virt. eigenvalues --    2.34375   2.40198   2.46342   2.51359   2.52239
 Alpha virt. eigenvalues --    2.60395   2.67466   2.68752   2.72339   2.72861
 Alpha virt. eigenvalues --    2.73180   2.73775   2.74972   2.76640   2.78650
 Alpha virt. eigenvalues --    2.88285   2.89490   2.90025   2.96692   3.07995
 Alpha virt. eigenvalues --    3.10256   3.12492   3.25714   3.37600   3.38617
          Condensed to atoms (all electrons):
              1          2          3          4          5          6
     1  C    4.673288   0.316115   0.317827   0.408175  -0.067963  -0.053650
     2  H    0.316115   0.766453  -0.054144  -0.017980  -0.007285   0.001766
     3  H    0.317827  -0.054144   0.818277  -0.022618   0.015787  -0.014372
     4  C    0.408175  -0.017980  -0.022618   4.740250   0.347675   0.682248
     5  H   -0.067963  -0.007285   0.015787   0.347675   0.788293  -0.042388
     6  C   -0.053650   0.001766  -0.014372   0.682248  -0.042388   4.712021
     7  H   -0.023871   0.000170   0.011363  -0.007853   0.013566   0.365790
     8  H    0.009352  -0.000413  -0.000404   0.007554  -0.020494   0.358359
     9  N    0.349497  -0.037227  -0.039979  -0.033729   0.019095   0.002258
    10  H   -0.050862   0.014258  -0.013150   0.002180  -0.001289   0.002179
    11  P   -0.025416  -0.006129   0.002445   0.000909   0.000186  -0.000229
    12  O    0.001405  -0.001959   0.015622   0.000670   0.000021  -0.000002
    13  O   -0.000425   0.000487  -0.000021  -0.000073  -0.000027   0.000000
    14  O   -0.014523   0.045791  -0.000781  -0.000821   0.000098  -0.000011
              7          8          9         10         11         12
     1  C   -0.023871   0.009352   0.349497  -0.050862  -0.025416   0.001405
     2  H    0.000170  -0.000413  -0.037227   0.014258  -0.006129  -0.001959
     3  H    0.011363  -0.000404  -0.039979  -0.013150   0.002445   0.015622
     4  C   -0.007853   0.007554  -0.033729   0.002180   0.000909   0.000670
     5  H    0.013566  -0.020494   0.019095  -0.001289   0.000186   0.000021
     6  C    0.365790   0.358359   0.002258   0.002179  -0.000229  -0.000002
     7  H    0.712517  -0.063990   0.000230   0.000185  -0.000082  -0.000003
     8  H   -0.063990   0.707564  -0.000251  -0.000134   0.000007   0.000000
     9  N    0.000230  -0.000251   6.703407   0.328429   0.250454  -0.045099
    10  H    0.000185  -0.000134   0.328429   0.679165  -0.016604   0.005963
    11  P   -0.000082   0.000007   0.250454  -0.016604  12.353230   0.589997
    12  O   -0.000003   0.000000  -0.045099   0.005963   0.589997   8.248494
    13  O    0.000000   0.000000  -0.035934   0.004131   0.621497  -0.035587
    14  O    0.000000   0.000000  -0.037623   0.002096   0.583275  -0.033943
             13         14
     1  C   -0.000425  -0.014523
     2  H    0.000487   0.045791
     3  H   -0.000021  -0.000781
     4  C   -0.000073  -0.000821
     5  H   -0.000027   0.000098
     6  C    0.000000  -0.000011
     7  H    0.000000   0.000000
     8  H    0.000000   0.000000
     9  N   -0.035934  -0.037623
    10  H    0.004131   0.002096
    11  P    0.621497   0.583275
    12  O   -0.035587  -0.033943
    13  O    8.202566  -0.031166
    14  O   -0.031166   8.217259
 Mulliken atomic charges:
              1
     1  C    0.161052
     2  H   -0.019904
     3  H   -0.035850
     4  C   -0.106588
     5  H   -0.045274
     6  C   -0.013969
     7  H   -0.008022
     8  H    0.002849
     9  N   -0.423526
    10  H    0.043450
    11  P    0.646459
    12  O   -0.745579
    13  O   -0.725448
    14  O   -0.729650
 Sum of Mulliken charges=  -2.00000
 Atomic charges with hydrogens summed into heavy atoms:
              1
     1  C    0.105298
     2  H    0.000000
     3  H    0.000000
     4  C   -0.151863
     5  H    0.000000
     6  C   -0.019142
     7  H    0.000000
     8  H    0.000000
     9  N   -0.380076
    10  H    0.000000
    11  P    0.646459
    12  O   -0.745579
    13  O   -0.725448
    14  O   -0.729650
 Sum of Mulliken charges=  -2.00000
 Electronic spatial extent (au):  <R**2>=  1450.4346
 Charge=    -2.0000 electrons
 Dipole moment (field-independent basis, Debye):
    X=   -13.0418    Y=     0.2710    Z=    -0.9571  Tot=    13.0797
 Quadrupole moment (field-independent basis, Debye-Ang):
   XX=   -90.9542   YY=   -70.2861   ZZ=   -68.9009
   XY=     0.3424   XZ=     2.1320   YZ=    -0.5198
 Traceless Quadrupole moment (field-independent basis, Debye-Ang):
   XX=   -14.2405   YY=     6.4276   ZZ=     7.8128
   XY=     0.3424   XZ=     2.1320   YZ=    -0.5198
 Octapole moment (field-independent basis, Debye-Ang**2):
  XXX=   -24.1031  YYY=   -10.7739  ZZZ=   -11.8731  XYY=   -17.1678
  XXY=     5.5597  XXZ=     7.4830  XZZ=   -10.4950  YZZ=     7.3955
  YYZ=     3.5599  XYZ=    -0.6369
 Hexadecapole moment (field-independent basis, Debye-Ang**3):
 XXXX= -1672.4765 YYYY=  -243.8304 ZZZZ=  -226.3152 XXXY=    29.6747
 XXXZ=    48.8162 YYYX=   -18.4262 YYYZ=    -0.8516 ZZZX=   -11.0252
 ZZZY=     1.6345 XXYY=  -317.7600 XXZZ=  -340.0988 YYZZ=   -77.0117
 XXYZ=    -8.3279 YYXZ=     6.2244 ZZXY=    11.2791
 N-N= 4.593636161217D+02 E-N=-2.694759071289D+03  KE= 7.367384620126D+02
 No NMR shielding tensors so no spin-rotation constants.
 Leave Link  601 at Wed Jul  9 21:34:09 2008, MaxMem=  536870912 cpu:       2.2
 (Enter /usr/local/Chem-Apps/g03_d01/g03/l701.exe)
 Compute integral first derivatives.
 ... and contract with generalized density number  0.
 D1PCM: PCM CHGder 1st derivatives, ID1Alg=0 FixD1E=F DoIter=F I1PDM=0.
 Leave Link  701 at Wed Jul  9 21:34:27 2008, MaxMem=  536870912 cpu:      35.6
 (Enter /usr/local/Chem-Apps/g03_d01/g03/l702.exe)
 L702 exits ... SP integral derivatives will be done elsewhere.
 Leave Link  702 at Wed Jul  9 21:34:27 2008, MaxMem=  536870912 cpu:       0.0
 (Enter /usr/local/Chem-Apps/g03_d01/g03/l703.exe)
 Compute integral first derivatives, UseDBF=F.
 Integral derivatives from FoFDir, PRISM(SPDF).
 Symmetry not used in FoFDir.
 MinBra= 0 MaxBra= 2 Meth= 1.
 IRaf=       0 NMat=   1 IRICut=       1 DoRegI=T DoRafI=F ISym2E= 0 JSym2E=0.
 Leave Link  703 at Wed Jul  9 21:34:32 2008, MaxMem=  536870912 cpu:      35.6
 (Enter /usr/local/Chem-Apps/g03_d01/g03/l716.exe)
 Dipole        =-5.13105721D+00 1.06637723D-01-3.76548257D-01
 ***** Axes restored to original set *****
 -------------------------------------------------------------------
 Center     Atomic                   Forces (Hartrees/Bohr)
 Number     Number              X              Y              Z
 -------------------------------------------------------------------
    1          6          -0.003780638   -0.005933089   -0.003179072
    2          1          -0.000584739   -0.002018255    0.009239436
    3          1          -0.001024790    0.013507239   -0.000706286
    4          6          -0.002245118    0.002146684   -0.000220680
    5          1          -0.000556851   -0.008291315    0.000165076
    6          6           0.003663873   -0.000735198    0.000190902
    7          1          -0.000489155    0.007375833    0.000208310
    8          1          -0.004260001   -0.003192595   -0.000542374
    9          7           0.016521137   -0.007560233    0.006859168
   10          1          -0.002345102    0.004366019   -0.010256405
   11         15          -0.049615514   -0.009950405    0.003898768
   12          8           0.015736045    0.026470040   -0.009222904
   13          8           0.021538386   -0.008219523   -0.018040633
   14          8           0.007442467   -0.007965199    0.021606695
 -------------------------------------------------------------------
 Cartesian Forces:  Max     0.049615514 RMS     0.012020080
 Leave Link  716 at Wed Jul  9 21:34:32 2008, MaxMem=  536870912 cpu:       0.0
 (Enter /usr/local/Chem-Apps/g03_d01/g03/l103.exe)

 GradGradGradGradGradGradGradGradGradGradGradGradGradGradGradGradGradGrad
 Berny optimization.
 Internal  Forces:  Max     0.027926651 RMS     0.009109075
 Search for a local minimum.
 Step number   1 out of a maximum of  66
 All quantities printed in internal units (Hartrees-Bohrs-Radians)
 Swaping is turned off.
 Second derivative matrix not updated -- first step.
     Eigenvalues ---    0.00230   0.00796   0.01052   0.01697   0.02917
     Eigenvalues ---    0.02917   0.02940   0.05075   0.06765   0.09879
     Eigenvalues ---    0.10686   0.13248   0.13354   0.13535   0.15989
     Eigenvalues ---    0.16000   0.16000   0.21872   0.21915   0.22004
     Eigenvalues ---    0.23644   0.25000   0.25000   0.25000   0.32617
     Eigenvalues ---    0.33025   0.33714   0.34949   0.35185   0.35277
     Eigenvalues ---    0.38459   0.44915   0.57790   0.65718   0.66151
     Eigenvalues ---    0.683001000.000001000.000001000.000001000.00000
     Eigenvalues --- 1000.000001000.000001000.000001000.000001000.00000
     Eigenvalues --- 1000.000001000.000001000.000001000.000001000.00000
     Eigenvalues --- 1000.000001000.000001000.000001000.000001000.00000
     Eigenvalues --- 1000.00000
 Quadratic step=1.349D+00 exceeds max=3.000D-01 adjusted using Lamda=-1.428D-02.
 Angle between NR and scaled steps=  39.65 degrees.
 Angle between quadratic step and forces=  47.90 degrees.
 Linear search not attempted -- option 19 set.
 Iteration  1 RMS(Cart)=  0.08424409 RMS(Int)=  0.00484630
 Iteration  2 RMS(Cart)=  0.00473668 RMS(Int)=  0.00138220
 Iteration  3 RMS(Cart)=  0.00002809 RMS(Int)=  0.00138204
 Iteration  4 RMS(Cart)=  0.00000015 RMS(Int)=  0.00138204
 Variable       Old X    -DE/DX   Delta X   Delta X   Delta X     New X
                                 (Linear)    (Quad)   (Total)
    R1        2.07815   0.00893   0.00000   0.02540   0.02540   2.10355
    R2        2.09008   0.01340   0.00000   0.03888   0.03888   2.12896
    R3        2.83030   0.00494   0.00000   0.01451   0.01451   2.84481
    R4        2.73702   0.01014   0.00000   0.02542   0.02542   2.76244
    R5        2.05758   0.00845   0.00000   0.02323   0.02323   2.08081
    R6        2.52733   0.00236   0.00000   0.00398   0.00398   2.53131
    R7        2.05228   0.00722   0.00000   0.01967   0.01967   2.07195
    R8        2.05375   0.00537   0.00000   0.01467   0.01467   2.06842
    R9        1.92074   0.01158   0.00000   0.02499   0.02499   1.94574
   R10        3.51597  -0.00485   0.00000  -0.02081  -0.02081   3.49516
   R11        2.90383   0.02791   0.00000   0.04156   0.04156   2.94540
   R12        2.88619   0.02793   0.00000   0.04005   0.04005   2.92624
   R13        2.90081   0.02278   0.00000   0.03371   0.03371   2.93452
    A1        1.85451   0.00000   0.00000   0.00151   0.00135   1.85586
    A2        1.91334  -0.00202   0.00000  -0.01726  -0.01725   1.89609
    A3        1.83088   0.00230   0.00000   0.01807   0.01802   1.84891
    A4        1.91789  -0.00008   0.00000  -0.00397  -0.00398   1.91391
    A5        2.00400   0.00055   0.00000   0.00514   0.00510   2.00910
    A6        1.93797  -0.00077   0.00000  -0.00365  -0.00363   1.93434
    A7        1.97991   0.00196   0.00000   0.00937   0.00936   1.98927
    A8        2.22593  -0.00270   0.00000  -0.01144  -0.01145   2.21448
    A9        2.07626   0.00074   0.00000   0.00241   0.00240   2.07866
   A10        2.11261   0.00067   0.00000   0.00390   0.00382   2.11643
   A11        2.13385  -0.00116   0.00000  -0.00660  -0.00667   2.12718
   A12        2.03665   0.00051   0.00000   0.00297   0.00289   2.03954
   A13        1.90014  -0.00197   0.00000   0.00144   0.00116   1.90130
   A14        1.96125   0.00961   0.00000   0.04132   0.04112   2.00238
   A15        1.84391  -0.00258   0.00000  -0.00288  -0.00322   1.84069
   A16        1.79720   0.02511   0.00000   0.09476   0.09099   1.88820
   A17        1.77641   0.01058   0.00000   0.03164   0.02986   1.80627
   A18        1.76208   0.01688   0.00000   0.07216   0.06791   1.82999
   A19        2.01414  -0.02125   0.00000  -0.10406  -0.10590   1.90824
   A20        2.00917  -0.00481   0.00000   0.00599  -0.00083   2.00835
   A21        2.04325  -0.00915   0.00000  -0.03472  -0.03721   2.00604
    D1       -1.14717  -0.00120   0.00000  -0.02628  -0.02625  -1.17342
    D2        2.04555  -0.00144   0.00000  -0.03437  -0.03435   2.01120
    D3        3.10401   0.00003   0.00000  -0.01577  -0.01579   3.08822
    D4        0.01354  -0.00022   0.00000  -0.02386  -0.02389  -0.01035
    D5        0.86777  -0.00004   0.00000  -0.01668  -0.01667   0.85110
    D6       -2.22271  -0.00028   0.00000  -0.02477  -0.02477  -2.24747
    D7       -2.86203  -0.00245   0.00000  -0.05077  -0.05090  -2.91293
    D8       -0.82567  -0.00122   0.00000  -0.02906  -0.02904  -0.85471
    D9       -0.83316  -0.00068   0.00000  -0.03455  -0.03457  -0.86773
   D10        1.20320   0.00056   0.00000  -0.01283  -0.01272   1.19049
   D11        1.35567  -0.00100   0.00000  -0.03891  -0.03897   1.31670
   D12       -2.89115   0.00024   0.00000  -0.01720  -0.01712  -2.90826
   D13       -0.01597  -0.00064   0.00000  -0.01364  -0.01365  -0.02962
   D14        3.11156   0.00037   0.00000   0.00969   0.00969   3.12125
   D15       -3.10395  -0.00092   0.00000  -0.02227  -0.02227  -3.12622
   D16        0.02358   0.00010   0.00000   0.00106   0.00107   0.02465
   D17       -1.11961  -0.00839   0.00000  -0.12937  -0.13148  -1.25110
   D18        3.07182   0.00138   0.00000  -0.06326  -0.06299   3.00882
   D19        0.96131   0.00149   0.00000  -0.06277  -0.06102   0.90029
   D20        0.95013  -0.00716   0.00000  -0.10697  -0.10902   0.84111
   D21       -1.14163   0.00261   0.00000  -0.04086  -0.04053  -1.18215
   D22        3.03106   0.00272   0.00000  -0.04037  -0.03856   2.99250
         Item               Value     Threshold  Converged?
 Maximum Force            0.027927     0.000450     NO 
 RMS     Force            0.009109     0.000300     NO 
 Maximum Displacement     0.378623     0.001800     NO 
 RMS     Displacement     0.085797     0.001200     NO 
 Predicted change in Energy=-7.559088D-03
 GradGradGradGradGradGradGradGradGradGradGradGradGradGradGradGradGradGrad

 Leave Link  103 at Wed Jul  9 21:34:32 2008, MaxMem=  536870912 cpu:       0.4
 (Enter /usr/local/Chem-Apps/g03_d01/g03/l202.exe)
                          Input orientation:                          
 ---------------------------------------------------------------------
 Center     Atomic     Atomic              Coordinates (Angstroms)
 Number     Number      Type              X           Y           Z
 ---------------------------------------------------------------------
    1          6             0       -1.345151    0.174230    0.349272
    2          1             0       -1.052698   -0.120889    1.381979
    3          1             0       -1.442498    1.296595    0.356081
    4          6             0       -2.678439   -0.447842    0.030489
    5          1             0       -2.652787   -1.545925   -0.047034
    6          6             0       -3.830188    0.194966   -0.203106
    7          1             0       -3.892539    1.288323   -0.149823
    8          1             0       -4.752547   -0.341635   -0.446779
    9          7             0       -0.302331   -0.352731   -0.529227
   10          1             0       -0.402976    0.074168   -1.460777
   11         15             0        1.426271    0.031167    0.005025
   12          8             0        1.683811    1.549489   -0.235224
   13          8             0        2.298231   -0.797337   -0.970230
   14          8             0        1.493856   -0.420925    1.489104
 ---------------------------------------------------------------------
                    Distance matrix (angstroms):
                    1          2          3          4          5
     1  C    0.000000
     2  H    1.113153   0.000000
     3  H    1.126599   1.792672   0.000000
     4  C    1.505408   2.139266   2.162549   0.000000
     5  H    2.196794   2.575479   3.115641   1.101115   0.000000
     6  C    2.545772   3.213520   2.688370   1.339512   2.107447
     7  H    2.824798   3.520937   2.501740   2.126222   3.095241
     8  H    3.536970   4.133034   3.779524   2.130959   2.453386
     9  N    1.461821   2.066279   2.191809   2.442994   2.679714
    10  H    2.043033   2.922576   2.424027   2.770217   3.112077
    11  P    2.796383   2.839791   3.155057   4.132644   4.373631
    12  O    3.377512   3.590820   3.191772   4.805119   5.331331
    13  O    3.994905   4.149602   4.487395   5.088304   5.091685
    14  O    3.116631   2.566404   3.585497   4.419992   4.562893
                    6          7          8          9         10
     6  C    0.000000
     7  H    1.096429   0.000000
     8  H    1.094561   1.866698   0.000000
     9  N    3.584982   3.965678   4.450993   0.000000
    10  H    3.652685   3.920437   4.485516   1.029640   0.000000
    11  P    5.263127   5.467555   6.206521   1.849559   2.344476
    12  O    5.678023   5.583116   6.711767   2.765798   2.834295
    13  O    6.255451   6.583972   7.084853   2.674899   2.880395
    14  O    5.620350   5.883949   6.539990   2.702702   3.541876
                   11         12         13         14
    11  P    0.000000
    12  O    1.558637   0.000000
    13  O    1.548501   2.534826   0.000000
    14  O    1.552883   2.625247   2.614772   0.000000
 Stoichiometry    C3H6NO3P(2-)
 Framework group  C1[X(C3H6NO3P)]
 Deg. of freedom    36
 Full point group                 C1
 Largest Abelian subgroup         C1      NOp   1
 Largest concise Abelian subgroup C1      NOp   1
                         Standard orientation:                         
 ---------------------------------------------------------------------
 Center     Atomic     Atomic              Coordinates (Angstroms)
 Number     Number      Type              X           Y           Z
 ---------------------------------------------------------------------
    1          6             0       -1.367489    0.115078    0.387028
    2          1             0       -1.074929   -0.347563    1.356296
    3          1             0       -1.453078    1.222166    0.577435
    4          6             0       -2.708190   -0.433488   -0.022665
    5          1             0       -2.694258   -1.504373   -0.278530
    6          6             0       -3.853877    0.250097   -0.142689
    7          1             0       -3.904631    1.320637    0.088665
    8          1             0       -4.782548   -0.230444   -0.466289
    9          7             0       -0.332968   -0.271560   -0.570677
   10          1             0       -0.432039    0.302687   -1.419549
   11         15             0        1.401204    0.002981    0.010824
   12          8             0        1.673852    1.537555    0.020436
   13          8             0        2.261422   -0.663665   -1.090750
   14          8             0        1.468670   -0.686017    1.400851
 ---------------------------------------------------------------------
 Rotational constants (GHZ):      4.0774173      0.8138724      0.8122964
 Leave Link  202 at Wed Jul  9 21:34:32 2008, MaxMem=  536870912 cpu:       0.3
 (Enter /usr/local/Chem-Apps/g03_d01/g03/l301.exe)
 Standard basis: CC-pVDZ (5D, 7F)
 There are   146 symmetry adapted basis functions of A   symmetry.
 Integral buffers will be    131072 words long.
 Raffenetti 2 integral format.
 Two-electron integral symmetry is turned on.
   146 basis functions,   346 primitive gaussians,   154 cartesian basis functions
    36 alpha electrons       36 beta electrons
       nuclear repulsion energy       453.4973320261 Hartrees.
 IExCor= 402 DFT=T Ex=B+HF Corr=LYP ExCW=0 ScaHFX=  0.200000
 ScaDFX=  0.800000  0.720000  1.000000  0.810000
 IRadAn=      5 IRanWt=     -1 IRanGd=            0 ICorTp=0
 NAtoms=   14 NActive=   14 NUniq=   14 SFac= 7.50D-01 NAtFMM=   80 NAOKFM=F Big=F
 ------------------------------------------------------------------------------
 United Atom Topological Model (UAKS parameters set).
  Nord Group  Hybr  Charge Alpha Radius          Bonded to
    1   CH2   sp3  -0.25   1.20  1.515   C4   [s]  N9   [s]
    4   CH    sp2  -0.25   1.20  1.785   C1   [s]  C6   [d]
    6   CH2   sp2  -0.25   1.20  1.965   C4   [d]
    9   NH    sp3  -0.25   1.20  1.588   C1   [s]  P11  [s]
   11   P     sp3  -0.25   1.20  1.905   N9   [s]  O12  [d]  O13  [d]  O14  [d]
   12   O     sp2  -0.25   1.20  1.560   P11  [d]
   13   O     sp2  -0.25   1.20  1.560   P11  [d]
   14   O     sp2  -0.25   1.20  1.560   P11  [d]
 ------------------------------------------------------------------------------
 Polarizable Continuum Model (PCM)
 =================================
 Model                : PCM.
 Atomic radii         : UAKS (United Atom Topological Model).
 Polarization charges : Total charges.
 Charge compensation  : None.
 Solution method      : Matrix inversion.
 Cavity               : GePol (RMin=0.200 OFac=0.890).
                        Default sphere list used, NSphG=    8.
                        Tesserae with average area of 0.050 Ang**2.
 1st derivatives      : Analytical V*U(x)*V algorithm (CHGder, D1EAlg=0).
                        Cavity 1st derivative terms included.
 Solvent              : Water, Eps     =  78.390000
                               Eps(inf)=   1.776000
                               RSolv   =   1.385000 Ang.
 ------------------------------------------------------------------------------
 GePol: Number of tesserae being generated         =    4346
 GePol: Average area of tesserae                   =       0.04 Ang**2
 GePol: Minimum area of tessera                    =   0.10D-02 Ang**2
 GePol: Maximum area of tessera                    =    0.07411 Ang**2
 GePol: Number of small tesserae                   =       0
 GePol: Fraction of small tesserae (<1% of avg)    =       0.00%
 GePol: Total count of vertices                    =   14179
 GePol: Maximum number of vertices in a tessera    =       6
 GePol: Cavity surface area                        =    174.425 Ang**2
 GePol: Cavity volume                              =    165.013 Ang**3
 GePol: Maximum number of non-zero 1st derivatives =    1204
 Leave Link  301 at Wed Jul  9 21:34:33 2008, MaxMem=  536870912 cpu:       1.7
 (Enter /usr/local/Chem-Apps/g03_d01/g03/l302.exe)
 NPDir=0 NMtPBC=     1 NCelOv=     1 NCel=       1 NClECP=     1 NCelD=      1
         NCelK=      1 NCelE2=     1 NClLst=     1 CellRange=     0.0.
 One-electron integrals computed using PRISM.
 NBasis=   146 RedAO= T  NBF=   146
 NBsUse=   146 1.00D-06 NBFU=   146
 Precomputing XC quadrature grid using
 IXCGrd= 2 IRadAn=           5 IRanWt=          -1 IRanGd=           0.
 NRdTot=    1162 NPtTot=      311104 NUsed=      319295 NTot=      319327
 NSgBfM=   154   154   154   154.
 Leave Link  302 at Wed Jul  9 21:34:34 2008, MaxMem=  536870912 cpu:       3.4
 (Enter /usr/local/Chem-Apps/g03_d01/g03/l303.exe)
 DipDrv:  MaxL=1.
 Leave Link  303 at Wed Jul  9 21:34:34 2008, MaxMem=  536870912 cpu:       0.3
 (Enter /usr/local/Chem-Apps/g03_d01/g03/l401.exe)
 Initial guess read from the read-write file:
 Guess basis will be translated and rotated to current coordinates.
 Initial guess orbital symmetries:
       Occupied  (A) (A) (A) (A) (A) (A) (A) (A) (A) (A) (A) (A)
                 (A) (A) (A) (A) (A) (A) (A) (A) (A) (A) (A) (A)
                 (A) (A) (A) (A) (A) (A) (A) (A) (A) (A) (A) (A)
       Virtual   (A) (A) (A) (A) (A) (A) (A) (A) (A) (A) (A) (A)
                 (A) (A) (A) (A) (A) (A) (A) (A) (A) (A) (A) (A)
                 (A) (A) (A) (A) (A) (A) (A) (A) (A) (A) (A) (A)
                 (A) (A) (A) (A) (A) (A) (A) (A) (A) (A) (A) (A)
                 (A) (A) (A) (A) (A) (A) (A) (A) (A) (A) (A) (A)
                 (A) (A) (A) (A) (A) (A) (A) (A) (A) (A) (A) (A)
                 (A) (A) (A) (A) (A) (A) (A) (A) (A) (A) (A) (A)
                 (A) (A) (A) (A) (A) (A) (A) (A) (A) (A) (A) (A)
                 (A) (A) (A) (A) (A) (A) (A) (A) (A) (A) (A) (A)
                 (A) (A)
 The electronic state of the initial guess is 1-A.
 Generating alternative initial guess.
 Harris functional with IExCor=  402 diagonalized for initial guess.
 ExpMin= 1.19D-01 ExpMax= 9.48D+04 ExpMxC= 3.24D+03 IAcc=3 IRadAn=         5 AccDes= 0.00D+00
 HarFok:  IExCor= 402 AccDes= 0.00D+00 IRadAn=         5 IDoV=1
 ScaDFX=  1.000000  1.000000  1.000000  1.000000
 Harris En= -740.407175699037    
 Leave Link  401 at Wed Jul  9 21:34:35 2008, MaxMem=  536870912 cpu:       7.6
 (Enter /usr/local/Chem-Apps/g03_d01/g03/l502.exe)
 Closed shell SCF:
 Requested convergence on RMS density matrix=1.00D-08 within 128 cycles.
 Requested convergence on MAX density matrix=1.00D-06.
 Requested convergence on             energy=1.00D-06.
 No special actions if energy rises.
 Using DIIS extrapolation, IDIIS=  1040.
 Integral symmetry usage will be decided dynamically.
       319294 words used for storage of precomputed grid.
 Keep R1 integrals in memory in canonical form, NReq=    91475348.
 IEnd=    421729 IEndB=    421729 NGot= 536870912 MDV= 465261600
 LenX= 465261600
 Symmetry not used in FoFDir.
 MinBra= 0 MaxBra= 2 Meth= 1.
 IRaf=       0 NMat=   1 IRICut=       1 DoRegI=T DoRafI=F ISym2E= 0 JSym2E=0.

 Cycle   1  Pass 1  IDiag  1:
 E= -739.923449922130    
 DIIS: error= 1.27D-02 at cycle   1 NSaved=   1.
 NSaved= 1 IEnMin= 1 EnMin= -739.923449922130     IErMin= 1 ErrMin= 1.27D-02
 ErrMax= 1.27D-02 EMaxC= 1.00D-01 BMatC= 4.28D-02 BMatP= 4.28D-02
 IDIUse=3 WtCom= 8.73D-01 WtEn= 1.27D-01
 Coeff-Com:  0.100D+01
 Coeff-En:   0.100D+01
 Coeff:      0.100D+01
 Recover alternate guess density for next cycle.
 RMSDP=5.63D-03 MaxDP=9.91D-02              OVMax= 0.00D+00

 Cycle   2  Pass 1  IDiag  1:
 E= -739.443880183699     Delta-E=        0.479569738430 Rises=F Damp=F
 Switch densities from cycles 1 and 2 for lowest energy.
 DIIS: error= 1.01D-01 at cycle   2 NSaved=   2.
 NSaved= 2 IEnMin= 1 EnMin= -739.923449922130     IErMin= 1 ErrMin= 1.27D-02
 ErrMax= 1.01D-01 EMaxC= 1.00D+00 BMatC= 6.97D-01 BMatP= 4.28D-02
 IDIUse=1 WtCom= 1.00D+00 WtEn= 0.00D+00
 Coeff-Com:  0.971D+00 0.287D-01
 Coeff:      0.971D+00 0.287D-01
 Gap=     0.212 Goal=   None    Shift=    0.000
 RMSDP=2.66D-03 MaxDP=4.85D-02 DE= 4.80D-01 OVMax= 1.25D-01

 Cycle   3  Pass 1  IDiag  1:
 E= -740.003689708134     Delta-E=       -0.559809524435 Rises=F Damp=F
 DIIS: error= 9.72D-03 at cycle   3 NSaved=   3.
 NSaved= 3 IEnMin= 3 EnMin= -740.003689708134     IErMin= 3 ErrMin= 9.72D-03
 ErrMax= 9.72D-03 EMaxC= 1.00D+00 BMatC= 6.73D-03 BMatP= 4.28D-02
 IDIUse=1 WtCom= 1.00D+00 WtEn= 0.00D+00
 Coeff-Com: -0.230D-01 0.816D-01 0.941D+00
 Coeff:     -0.230D-01 0.816D-01 0.941D+00
 Gap=     0.175 Goal=   None    Shift=    0.000
 RMSDP=6.73D-04 MaxDP=1.76D-02 DE=-5.60D-01 OVMax= 1.86D-02

 Cycle   4  Pass 1  IDiag  1:
 E= -740.006628128549     Delta-E=       -0.002938420414 Rises=F Damp=F
 DIIS: error= 2.80D-03 at cycle   4 NSaved=   4.
 NSaved= 4 IEnMin= 4 EnMin= -740.006628128549     IErMin= 4 ErrMin= 2.80D-03
 ErrMax= 2.80D-03 EMaxC= 1.00D+00 BMatC= 3.15D-03 BMatP= 6.73D-03
 IDIUse=1 WtCom= 1.00D+00 WtEn= 0.00D+00
 Coeff-Com: -0.462D-01 0.461D-01 0.577D+00 0.423D+00
 Coeff:     -0.462D-01 0.461D-01 0.577D+00 0.423D+00
 Gap=     0.168 Goal=   None    Shift=    0.000
 RMSDP=3.64D-04 MaxDP=1.08D-02 DE=-2.94D-03 OVMax= 1.20D-02

 Cycle   5  Pass 1  IDiag  1:
 E= -740.009292895130     Delta-E=       -0.002664766581 Rises=F Damp=F
 DIIS: error= 3.72D-04 at cycle   5 NSaved=   5.
 NSaved= 5 IEnMin= 5 EnMin= -740.009292895130     IErMin= 5 ErrMin= 3.72D-04
 ErrMax= 3.72D-04 EMaxC= 1.00D+00 BMatC= 5.84D-05 BMatP= 3.15D-03
 IDIUse=1 WtCom= 1.00D+00 WtEn= 0.00D+00
 Coeff-Com: -0.157D-01 0.134D-01 0.180D+00 0.178D+00 0.644D+00
 Coeff:     -0.157D-01 0.134D-01 0.180D+00 0.178D+00 0.644D+00
 Gap=     0.168 Goal=   None    Shift=    0.000
 RMSDP=5.79D-05 MaxDP=1.58D-03 DE=-2.66D-03 OVMax= 1.78D-03

 Cycle   6  Pass 1  IDiag  1:
 E= -740.009336033444     Delta-E=       -0.000043138315 Rises=F Damp=F
 DIIS: error= 1.66D-04 at cycle   6 NSaved=   6.
 NSaved= 6 IEnMin= 6 EnMin= -740.009336033444     IErMin= 6 ErrMin= 1.66D-04
 ErrMax= 1.66D-04 EMaxC= 1.00D+00 BMatC= 9.52D-06 BMatP= 5.84D-05
 IDIUse=1 WtCom= 1.00D+00 WtEn= 0.00D+00
 Coeff-Com: -0.221D-02 0.153D-02 0.202D-01 0.390D-01 0.320D+00 0.622D+00
 Coeff:     -0.221D-02 0.153D-02 0.202D-01 0.390D-01 0.320D+00 0.622D+00
 Gap=     0.169 Goal=   None    Shift=    0.000
 RMSDP=2.17D-05 MaxDP=5.89D-04 DE=-4.31D-05 OVMax= 8.41D-04

 Cycle   7  Pass 1  IDiag  1:
 E= -740.009343509419     Delta-E=       -0.000007475974 Rises=F Damp=F
 DIIS: error= 7.68D-05 at cycle   7 NSaved=   7.
 NSaved= 7 IEnMin= 7 EnMin= -740.009343509419     IErMin= 7 ErrMin= 7.68D-05
 ErrMax= 7.68D-05 EMaxC= 1.00D+00 BMatC= 1.42D-06 BMatP= 9.52D-06
 IDIUse=1 WtCom= 1.00D+00 WtEn= 0.00D+00
 Coeff-Com: -0.222D-03-0.445D-04-0.146D-02 0.986D-02 0.134D+00 0.356D+00
 Coeff-Com:  0.501D+00
 Coeff:     -0.222D-03-0.445D-04-0.146D-02 0.986D-02 0.134D+00 0.356D+00
 Coeff:      0.501D+00
 Gap=     0.169 Goal=   None    Shift=    0.000
 RMSDP=7.82D-06 MaxDP=1.61D-04 DE=-7.48D-06 OVMax= 2.86D-04

 Cycle   8  Pass 1  IDiag  1:
 E= -740.009344640398     Delta-E=       -0.000001130980 Rises=F Damp=F
 DIIS: error= 1.59D-05 at cycle   8 NSaved=   8.
 NSaved= 8 IEnMin= 8 EnMin= -740.009344640398     IErMin= 8 ErrMin= 1.59D-05
 ErrMax= 1.59D-05 EMaxC= 1.00D+00 BMatC= 8.56D-08 BMatP= 1.42D-06
 IDIUse=1 WtCom= 1.00D+00 WtEn= 0.00D+00
 Coeff-Com:  0.145D-03-0.232D-03-0.358D-02-0.152D-03 0.253D-01 0.935D-01
 Coeff-Com:  0.240D+00 0.646D+00
 Coeff:      0.145D-03-0.232D-03-0.358D-02-0.152D-03 0.253D-01 0.935D-01
 Coeff:      0.240D+00 0.646D+00
 Gap=     0.169 Goal=   None    Shift=    0.000
 RMSDP=2.10D-06 MaxDP=4.20D-05 DE=-1.13D-06 OVMax= 6.61D-05

 Cycle   9  Pass 1  IDiag  1:
 E= -740.009344710806     Delta-E=       -0.000000070407 Rises=F Damp=F
 DIIS: error= 5.35D-06 at cycle   9 NSaved=   9.
 NSaved= 9 IEnMin= 9 EnMin= -740.009344710806     IErMin= 9 ErrMin= 5.35D-06
 ErrMax= 5.35D-06 EMaxC= 1.00D+00 BMatC= 6.94D-09 BMatP= 8.56D-08
 IDIUse=1 WtCom= 1.00D+00 WtEn= 0.00D+00
 Coeff-Com:  0.945D-04-0.110D-03-0.166D-02-0.983D-03 0.820D-03 0.142D-01
 Coeff-Com:  0.695D-01 0.297D+00 0.621D+00
 Coeff:      0.945D-04-0.110D-03-0.166D-02-0.983D-03 0.820D-03 0.142D-01
 Coeff:      0.695D-01 0.297D+00 0.621D+00
 Gap=     0.169 Goal=   None    Shift=    0.000
 RMSDP=6.86D-07 MaxDP=1.92D-05 DE=-7.04D-08 OVMax= 2.64D-05

 Cycle  10  Pass 1  IDiag  1:
 E= -740.009344717491     Delta-E=       -0.000000006685 Rises=F Damp=F
 DIIS: error= 1.23D-06 at cycle  10 NSaved=  10.
 NSaved=10 IEnMin=10 EnMin= -740.009344717491     IErMin=10 ErrMin= 1.23D-06
 ErrMax= 1.23D-06 EMaxC= 1.00D+00 BMatC= 5.43D-10 BMatP= 6.94D-09
 IDIUse=1 WtCom= 1.00D+00 WtEn= 0.00D+00
 Coeff-Com:  0.211D-04-0.180D-04-0.284D-03-0.368D-03-0.204D-02-0.322D-02
 Coeff-Com:  0.560D-02 0.615D-01 0.262D+00 0.677D+00
 Coeff:      0.211D-04-0.180D-04-0.284D-03-0.368D-03-0.204D-02-0.322D-02
 Coeff:      0.560D-02 0.615D-01 0.262D+00 0.677D+00
 Gap=     0.169 Goal=   None    Shift=    0.000
 RMSDP=1.93D-07 MaxDP=7.78D-06 DE=-6.69D-09 OVMax= 1.55D-05

 Cycle  11  Pass 1  IDiag  1:
 E= -740.009344717873     Delta-E=       -0.000000000382 Rises=F Damp=F
 DIIS: error= 9.17D-07 at cycle  11 NSaved=  11.
 NSaved=11 IEnMin=11 EnMin= -740.009344717873     IErMin=11 ErrMin= 9.17D-07
 ErrMax= 9.17D-07 EMaxC= 1.00D+00 BMatC= 1.85D-10 BMatP= 5.43D-10
 IDIUse=1 WtCom= 1.00D+00 WtEn= 0.00D+00
 Coeff-Com:  0.337D-05-0.436D-08-0.221D-05-0.134D-03-0.141D-02-0.361D-02
 Coeff-Com: -0.377D-02 0.804D-02 0.103D+00 0.433D+00 0.465D+00
 Coeff:      0.337D-05-0.436D-08-0.221D-05-0.134D-03-0.141D-02-0.361D-02
 Coeff:     -0.377D-02 0.804D-02 0.103D+00 0.433D+00 0.465D+00
 Gap=     0.169 Goal=   None    Shift=    0.000
 RMSDP=8.21D-08 MaxDP=3.40D-06 DE=-3.82D-10 OVMax= 6.17D-06

 Cycle  12  Pass 1  IDiag  1:
 E= -740.009344718058     Delta-E=       -0.000000000185 Rises=F Damp=F
 DIIS: error= 6.27D-08 at cycle  12 NSaved=  12.
 NSaved=12 IEnMin=12 EnMin= -740.009344718058     IErMin=12 ErrMin= 6.27D-08
 ErrMax= 6.27D-08 EMaxC= 1.00D+00 BMatC= 2.02D-12 BMatP= 1.85D-10
 IDIUse=1 WtCom= 1.00D+00 WtEn= 0.00D+00
 Coeff-Com: -0.364D-06 0.891D-06 0.187D-04-0.180D-04-0.288D-03-0.817D-03
 Coeff-Com: -0.138D-02-0.192D-02 0.118D-01 0.834D-01 0.139D+00 0.770D+00
 Coeff:     -0.364D-06 0.891D-06 0.187D-04-0.180D-04-0.288D-03-0.817D-03
 Coeff:     -0.138D-02-0.192D-02 0.118D-01 0.834D-01 0.139D+00 0.770D+00
 Gap=     0.169 Goal=   None    Shift=    0.000
 RMSDP=1.13D-08 MaxDP=2.94D-07 DE=-1.85D-10 OVMax= 3.46D-07

 Cycle  13  Pass 1  IDiag  1:
 E= -740.009344718062     Delta-E=       -0.000000000004 Rises=F Damp=F
 DIIS: error= 2.65D-08 at cycle  13 NSaved=  13.
 NSaved=13 IEnMin=13 EnMin= -740.009344718062     IErMin=13 ErrMin= 2.65D-08
 ErrMax= 2.65D-08 EMaxC= 1.00D+00 BMatC= 2.03D-13 BMatP= 2.02D-12
 IDIUse=1 WtCom= 1.00D+00 WtEn= 0.00D+00
 Coeff-Com: -0.316D-06 0.324D-06 0.809D-05-0.235D-05-0.653D-04-0.202D-03
 Coeff-Com: -0.425D-03-0.113D-02 0.709D-03 0.178D-01 0.394D-01 0.327D+00
 Coeff-Com:  0.617D+00
 Coeff:     -0.316D-06 0.324D-06 0.809D-05-0.235D-05-0.653D-04-0.202D-03
 Coeff:     -0.425D-03-0.113D-02 0.709D-03 0.178D-01 0.394D-01 0.327D+00
 Coeff:      0.617D+00
 Gap=     0.169 Goal=   None    Shift=    0.000
 RMSDP=3.55D-09 MaxDP=8.91D-08 DE=-3.87D-12 OVMax= 9.65D-08

 Error on total polarization charges =  0.01884
 SCF Done:  E(RB+HF-LYP) =  -740.009344718     A.U. after   13 cycles
             Convg  =    0.3546D-08             -V/T =  2.0049
             S**2   =   0.0000
 KE= 7.364298380139D+02 PE=-2.682651544103D+03 EE= 7.527150293449D+02
 --------------------------------------------------------------------
 Variational PCM results
 =======================
 <psi(f)|   H    |psi(f)>                     (a.u.) =    -739.642840
 <psi(f)|H+V(f)/2|psi(f)>                     (a.u.) =    -740.009345
 Total free energy in solution:
  with all non electrostatic terms            (a.u.) =    -740.004283
 --------------------------------------------------------------------
 (Polarized solute)-Solvent               (kcal/mol) =    -229.99
 --------------------------------------------------------------------
 Cavitation energy                        (kcal/mol) =      17.95
 Dispersion energy                        (kcal/mol) =     -20.07
 Repulsion energy                         (kcal/mol) =       5.29
 Total non electrostatic                  (kcal/mol) =       3.18
 --------------------------------------------------------------------
 Partition over spheres:
 Sphere  on Atom  Surface  Charge   GEl     GCav    GDR
    1      C1       7.18  -0.073    3.75    1.48   -0.44
    2      C4      13.70   0.018   -1.56    1.87   -1.60
    3      C6      48.33   0.107   -6.79    4.20   -3.83
    4      N9       9.54   0.046   -6.76    1.73   -1.34
    5      P11      5.06   0.091  -11.35    1.24   -0.28
    6      O12     21.52   0.458  -53.54    2.48   -2.46
    7      O13     21.82   0.460  -54.81    2.47   -2.42
    8      O14     20.87   0.436  -50.79    2.48   -2.40
 Added spheres:    26.42   0.412  -48.14    0.00    0.00
 --------------------------------------------------------------------
 After PCM corrections, the SCF energy is  -740.009344718     a.u.
 --------------------------------------------------------------------
 Leave Link  502 at Wed Jul  9 21:43:41 2008, MaxMem=  536870912 cpu:     816.9
 (Enter /usr/local/Chem-Apps/g03_d01/g03/l701.exe)
 Compute integral first derivatives.
 ... and contract with generalized density number  0.
 D1PCM: PCM CHGder 1st derivatives, ID1Alg=0 FixD1E=F DoIter=F I1PDM=0.
 Leave Link  701 at Wed Jul  9 21:43:57 2008, MaxMem=  536870912 cpu:      33.5
 (Enter /usr/local/Chem-Apps/g03_d01/g03/l702.exe)
 L702 exits ... SP integral derivatives will be done elsewhere.
 Leave Link  702 at Wed Jul  9 21:43:57 2008, MaxMem=  536870912 cpu:       0.0
 (Enter /usr/local/Chem-Apps/g03_d01/g03/l703.exe)
 Compute integral first derivatives, UseDBF=F.
 Integral derivatives from FoFDir, PRISM(SPDF).
 Symmetry not used in FoFDir.
 MinBra= 0 MaxBra= 2 Meth= 1.
 IRaf=       0 NMat=   1 IRICut=       1 DoRegI=T DoRafI=F ISym2E= 0 JSym2E=0.
 Leave Link  703 at Wed Jul  9 21:44:01 2008, MaxMem=  536870912 cpu:      34.8
 (Enter /usr/local/Chem-Apps/g03_d01/g03/l716.exe)
 Dipole        =-5.85919342D+00 1.90177389D-01-2.75538828D-01
 ***** Axes restored to original set *****
 -------------------------------------------------------------------
 Center     Atomic                   Forces (Hartrees/Bohr)
 Number     Number              X              Y              Z
 -------------------------------------------------------------------
    1          6          -0.001257706   -0.003364608   -0.001526068
    2          1          -0.000235303   -0.000481899    0.003363604
    3          1           0.000002181    0.003741263   -0.000614439
    4          6          -0.000669431   -0.000500837   -0.001377777
    5          1          -0.000200736    0.000142452    0.000113603
    6          6           0.000997737    0.000735046    0.000804284
    7          1           0.000147592    0.000058155   -0.000525724
    8          1          -0.000022704   -0.000100383    0.000428139
    9          7           0.014674667    0.002816149    0.005974706
   10          1          -0.001266619    0.000307509   -0.000981490
   11         15           0.004672860    0.003994458   -0.010873177
   12          8          -0.010578833    0.008519131    0.005654783
   13          8          -0.000135493   -0.014248915   -0.005982229
   14          8          -0.006128211   -0.001617521    0.005541783
 -------------------------------------------------------------------
 Cartesian Forces:  Max     0.014674667 RMS     0.004856005
 Leave Link  716 at Wed Jul  9 21:44:01 2008, MaxMem=  536870912 cpu:       0.0
 (Enter /usr/local/Chem-Apps/g03_d01/g03/l103.exe)

 GradGradGradGradGradGradGradGradGradGradGradGradGradGradGradGradGradGrad
 Berny optimization.
 Use GDIIS/GDPIS optimizer.
 Internal  Forces:  Max     0.020802766 RMS     0.005364293
 Search for a local minimum.
 Step number   2 out of a maximum of  66
 All quantities printed in internal units (Hartrees-Bohrs-Radians)
 Swaping is turned off.
 Update second derivatives using D2CorX and points  1  2
 Trust test= 2.55D-01 RLast= 3.00D-01 DXMaxT set to 3.00D-01
     Eigenvalues ---    0.00247   0.00800   0.01051   0.01692   0.02738
     Eigenvalues ---    0.02915   0.02923   0.05094   0.06780   0.09789
     Eigenvalues ---    0.11068   0.12536   0.13187   0.14128   0.15978
     Eigenvalues ---    0.15996   0.16000   0.19940   0.21921   0.21999
     Eigenvalues ---    0.23486   0.24965   0.25000   0.31192   0.32632
     Eigenvalues ---    0.33520   0.34638   0.35116   0.35232   0.38067
     Eigenvalues ---    0.43258   0.44899   0.57528   0.58035   0.65980
     Eigenvalues ---    0.676551000.000001000.000001000.000001000.00000
     Eigenvalues --- 1000.000001000.000001000.000001000.000001000.00000
     Eigenvalues --- 1000.000001000.000001000.000001000.000001000.00000
     Eigenvalues --- 1000.000001000.000001000.000001000.000001000.00000
     Eigenvalues --- 1000.00000
 Cosine:  0.643 <  0.970
 Cut down GDIIS temporarily because of the cosine check. E 9
 DIIS coeff's:      0.73781      0.26219
 Cosine:  0.643 >  0.500
 Length:  1.551
 GDIIS step was calculated using  2 of the last  2 vectors.
 Iteration  1 RMS(Cart)=  0.04040758 RMS(Int)=  0.00091278
 Iteration  2 RMS(Cart)=  0.00111848 RMS(Int)=  0.00017206
 Iteration  3 RMS(Cart)=  0.00000046 RMS(Int)=  0.00017206
 Variable       Old X    -DE/DX   Delta X   Delta X   Delta X     New X
                                  (DIIS)     (GDIIS)  (Total)
    R1        2.10355   0.00319  -0.00666   0.02007   0.01341   2.11696
    R2        2.12896   0.00373  -0.01019   0.02837   0.01818   2.14714
    R3        2.84481  -0.00025  -0.00381   0.00693   0.00312   2.84793
    R4        2.76244   0.00139  -0.00666   0.01573   0.00907   2.77151
    R5        2.08081  -0.00015  -0.00609   0.01164   0.00555   2.08635
    R6        2.53131  -0.00076  -0.00104   0.00106   0.00002   2.53133
    R7        2.07195   0.00002  -0.00516   0.01018   0.00502   2.07697
    R8        2.06842  -0.00003  -0.00385   0.00750   0.00365   2.07207
    R9        1.94574   0.00114  -0.00655   0.01468   0.00813   1.95387
   R10        3.49516  -0.01371   0.00546  -0.05710  -0.05165   3.44351
   R11        2.94540   0.00568  -0.01090   0.02758   0.01668   2.96208
   R12        2.92624   0.01132  -0.01050   0.03265   0.02215   2.94839
   R13        2.93452   0.00549  -0.00884   0.02332   0.01448   2.94900
    A1        1.85586   0.00018  -0.00035   0.00078   0.00048   1.85634
    A2        1.89609  -0.00072   0.00452  -0.00798  -0.00355   1.89254
    A3        1.84891   0.00099  -0.00473   0.02197   0.01725   1.86616
    A4        1.91391  -0.00068   0.00104  -0.00950  -0.00848   1.90543
    A5        2.00910  -0.00154  -0.00134  -0.00840  -0.00972   1.99937
    A6        1.93434   0.00177   0.00095   0.00391   0.00480   1.93914
    A7        1.98927   0.00121  -0.00245   0.00939   0.00689   1.99616
    A8        2.21448  -0.00204   0.00300  -0.01269  -0.00974   2.20474
    A9        2.07866   0.00084  -0.00063   0.00406   0.00338   2.08205
   A10        2.11643   0.00005  -0.00100   0.00219   0.00120   2.11763
   A11        2.12718  -0.00014   0.00175  -0.00419  -0.00243   2.12475
   A12        2.03954   0.00009  -0.00076   0.00191   0.00116   2.04070
   A13        1.90130  -0.00101  -0.00030  -0.01148  -0.01170   1.88960
   A14        2.00238  -0.00080  -0.01078   0.01703   0.00630   2.00868
   A15        1.84069   0.00087   0.00084  -0.00085   0.00010   1.84079
   A16        1.88820  -0.01550  -0.02386   0.00167  -0.02174   1.86645
   A17        1.80627  -0.01078  -0.00783  -0.00966  -0.01737   1.78889
   A18        1.82999  -0.01260  -0.01781  -0.01345  -0.03088   1.79911
   A19        1.90824   0.02080   0.02777   0.02965   0.05770   1.96594
   A20        2.00835   0.00512   0.00022  -0.00570  -0.00463   2.00371
   A21        2.00604   0.00705   0.00976  -0.00536   0.00439   2.01042
    D1       -1.17342  -0.00051   0.00688  -0.01494  -0.00804  -1.18146
    D2        2.01120  -0.00086   0.00901  -0.03632  -0.02730   1.98389
    D3        3.08822   0.00005   0.00414  -0.00620  -0.00206   3.08616
    D4       -0.01035  -0.00030   0.00626  -0.02758  -0.02132  -0.03168
    D5        0.85110   0.00125   0.00437   0.00910   0.01347   0.86457
    D6       -2.24747   0.00090   0.00649  -0.01228  -0.00580  -2.25327
    D7       -2.91293  -0.00010   0.01334  -0.05440  -0.04097  -2.95390
    D8       -0.85471  -0.00021   0.00761  -0.05279  -0.04513  -0.89984
    D9       -0.86773  -0.00008   0.00906  -0.04335  -0.03430  -0.90204
   D10        1.19049  -0.00019   0.00333  -0.04174  -0.03846   1.15202
   D11        1.31670  -0.00074   0.01022  -0.05967  -0.04946   1.26724
   D12       -2.90826  -0.00085   0.00449  -0.05805  -0.05362  -2.96189
   D13       -0.02962   0.00067   0.00358   0.01214   0.01571  -0.01391
   D14        3.12125   0.00057  -0.00254   0.02444   0.02190  -3.14004
   D15       -3.12622   0.00030   0.00584  -0.01031  -0.00446  -3.13069
   D16        0.02465   0.00020  -0.00028   0.00200   0.00172   0.02637
   D17       -1.25110   0.00814   0.03447   0.02394   0.05867  -1.19243
[...]
    4      N9       8.74   0.033   -5.94    1.65   -1.26
    5      P11      5.16   0.089  -11.17    1.19   -0.30
    6      O12     21.07   0.475  -56.16    2.46   -2.43
    7      O13     21.63   0.472  -56.39    2.46   -2.47
    8      O14     21.39   0.477  -57.15    2.46   -2.42
 Added spheres:    26.74   0.411  -47.89    0.00    0.00
 --------------------------------------------------------------------
 After PCM corrections, the SCF energy is  -740.248046653     a.u.
 --------------------------------------------------------------------
 Leave Link  502 at Thu Jul 10 05:03:26 2008, MaxMem=  536870912 cpu:    1149.8
 (Enter /usr/local/Chem-Apps/g03_d01/g03/l801.exe)
 Range of M.O.s used for correlation:     1   328
 NBasis=   328 NAE=    36 NBE=    36 NFC=     0 NFV=     0
 NROrb=    328 NOA=    36 NOB=    36 NVA=   292 NVB=   292

 **** Warning!!: The largest alpha MO coefficient is  0.10652370D+02

 Leave Link  801 at Thu Jul 10 05:03:27 2008, MaxMem=  536870912 cpu:       0.1
 (Enter /usr/local/Chem-Apps/g03_d01/g03/l1002.exe)
 Minotr:  Closed-shell wavefunction.
          Direct CPHF calculation.
          Solving linear equations simultaneously.
          Differentiating once with respect to magnetic field using GIAOs.
          Electric field/nuclear overlap derivatives assumed to be zero.
          Requested convergence is 1.0D-08 RMS, and 1.0D-07 maximum.
          Secondary convergence is 1.0D-12 RMS, and 1.0D-12 maximum.
          NewPWx=T KeepS1=F KeepF1=F KeepIn=T MapXYZ=F.
          MDV=     536870798 using IRadAn=       1.
 Generate precomputed XC quadrature information.
 Symmetry not used in FoFDir.
 MinBra= 0 MaxBra= 3 Meth= 1.
 IRaf=       0 NMat=   1 IRICut=       1 DoRegI=T DoRafI=F ISym2E= 0 JSym2E=0.
          There are   3 degrees of freedom in the 1st order CPHF.
     3 vectors were produced by pass  0.
 AX will form   3 AO Fock derivatives at one time.
     3 vectors were produced by pass  1.
     3 vectors were produced by pass  2.
     3 vectors were produced by pass  3.
     3 vectors were produced by pass  4.
     3 vectors were produced by pass  5.
 Inv2:  IOpt= 1 Iter= 1 AM= 4.91D-16 Conv= 1.00D-12.
 Inverted reduced A of dimension   18 with in-core refinement.
 Calculating GIAO nuclear magnetic shielding tensors.
 SCF GIAO Magnetic shielding tensor (ppm):
  1  C    Isotropic =   128.6873   Anisotropy =    30.4887
   XX=   144.7017   YX=    -0.3895   ZX=    -8.8494
   XY=     2.1067   YY=   127.1925   ZY=     3.0802
   XZ=   -15.5302   YZ=     7.5161   ZZ=   114.1676
   Eigenvalues:   108.4099   128.6389   149.0131
  2  H    Isotropic =    27.4840   Anisotropy =     3.9223
   XX=    28.8348   YX=    -0.9195   ZX=    -1.3345
   XY=    -0.0510   YY=    23.7793   ZY=     0.8389
   XZ=     0.4896   YZ=     0.5513   ZZ=    29.8379
   Eigenvalues:    23.6638    28.6893    30.0988
  3  H    Isotropic =    27.5312   Anisotropy =     6.6717
   XX=    29.5537   YX=    -2.4745   ZX=    -1.1452
   XY=    -2.2636   YY=    29.6557   ZY=    -1.0941
   XZ=     0.0111   YZ=     0.5485   ZZ=    23.3844
   Eigenvalues:    23.2896    27.3250    31.9790
  4  C    Isotropic =    28.3077   Anisotropy =   174.9888
   XX=    29.8877   YX=   -55.2950   ZX=   -29.8983
   XY=   -45.9932   YY=   -69.6753   ZY=    49.9626
   XZ=   -14.2055   YZ=    41.6872   ZZ=   124.7109
   Eigenvalues:   -96.2969    36.2531   144.9670
  5  H    Isotropic =    25.2195   Anisotropy =     4.9545
   XX=    28.4903   YX=    -0.4546   ZX=     0.7228
   XY=     0.1266   YY=    21.8384   ZY=     0.0806
   XZ=    -0.1334   YZ=    -0.4706   ZZ=    25.3298
   Eigenvalues:    21.8243    25.3117    28.5225
  6  C    Isotropic =    71.9764   Anisotropy =   128.3942
   XX=    68.2946   YX=   -59.0556   ZX=    -7.3778
   XY=   -66.1062   YY=     3.9476   ZY=    25.2348
   XZ=   -20.8622   YZ=    26.4944   ZZ=   143.6869
   Eigenvalues:   -35.4873    93.8439   157.5725
  7  H    Isotropic =    26.5389   Anisotropy =     5.4904
   XX=    28.5623   YX=    -3.6110   ZX=     1.3855
   XY=    -0.9803   YY=    24.7069   ZY=     0.1576
   XZ=     1.4700   YZ=    -1.0205   ZZ=    26.3474
   Eigenvalues:    23.6180    25.7995    30.1991
  8  H    Isotropic =    26.8019   Anisotropy =     5.7617
   XX=    29.9443   YX=    -0.3524   ZX=     1.1032
   XY=    -2.8608   YY=    24.5272   ZY=    -0.4280
   XZ=     0.9881   YZ=    -0.2826   ZZ=    25.9343
   Eigenvalues:    24.0839    25.6788    30.6430
  9  N    Isotropic =   174.9557   Anisotropy =    86.2473
   XX=   221.5234   YX=    18.8176   ZX=    29.4832
   XY=     7.4225   YY=   146.4309   ZY=    11.1494
   XZ=    19.1053   YZ=     8.3503   ZZ=   156.9127
   Eigenvalues:   140.5716   151.8416   232.4539
 10  H    Isotropic =    30.7831   Anisotropy =     7.6966
   XX=    32.3822   YX=    -1.3884   ZX=     2.3494
   XY=    -0.2612   YY=    24.5927   ZY=     1.9843
   XZ=    -0.1362   YZ=     1.4643   ZZ=    35.3744
   Eigenvalues:    24.2037    32.2314    35.9142
 11  P    Isotropic =   296.2690   Anisotropy =    76.9643
   XX=   216.1685   YX=   -29.8934   ZX=   -16.6393
   XY=   -39.8795   YY=   335.5730   ZY=   -10.7248
   XZ=   -18.6665   YZ=    -8.1013   ZZ=   337.0655
   Eigenvalues:   203.8653   337.3632   347.5785
 12  O    Isotropic =   206.5633   Anisotropy =   110.2739
   XX=   160.9735   YX=    15.4335   ZX=    10.1649
   XY=    11.8638   YY=   264.1260   ZY=   -24.4653
   XZ=     1.2920   YZ=   -46.8804   ZZ=   194.5903
   Eigenvalues:   155.4584   184.1521   280.0792
 13  O    Isotropic =   193.3164   Anisotropy =   116.7675
   XX=   197.7868   YX=   -25.7226   ZX=   -34.6589
   XY=   -31.3024   YY=   179.8205   ZY=    43.1101
   XZ=   -50.1304   YZ=    43.2322   ZZ=   202.3418
   Eigenvalues:   145.9723   162.8155   271.1613
 14  O    Isotropic =   219.9474   Anisotropy =   117.4541
   XX=   171.6151   YX=     8.7956   ZX=    13.2355
   XY=    -0.4527   YY=   223.3211   ZY=   -55.4540
   XZ=    29.1830   YZ=   -40.3508   ZZ=   264.9060
   Eigenvalues:   162.1490   199.4431   298.2502
 End of Minotr Frequency-dependent properties file   721 does not exist.
 Leave Link 1002 at Thu Jul 10 05:06:32 2008, MaxMem=  536870912 cpu:    1372.9
 (Enter /usr/local/Chem-Apps/g03_d01/g03/l601.exe)
 Copying SCF densities to generalized density rwf, ISCF=0 IROHF=0.

 **********************************************************************

            Population analysis using the SCF density.

 **********************************************************************

 Orbital symmetries:
       Occupied  (A) (A) (A) (A) (A) (A) (A) (A) (A) (A) (A) (A)
                 (A) (A) (A) (A) (A) (A) (A) (A) (A) (A) (A) (A)
                 (A) (A) (A) (A) (A) (A) (A) (A) (A) (A) (A) (A)
       Virtual   (A) (A) (A) (A) (A) (A) (A) (A) (A) (A) (A) (A)
                 (A) (A) (A) (A) (A) (A) (A) (A) (A) (A) (A) (A)
                 (A) (A) (A) (A) (A) (A) (A) (A) (A) (A) (A) (A)
                 (A) (A) (A) (A) (A) (A) (A) (A) (A) (A) (A) (A)
                 (A) (A) (A) (A) (A) (A) (A) (A) (A) (A) (A) (A)
                 (A) (A) (A) (A) (A) (A) (A) (A) (A) (A) (A) (A)
                 (A) (A) (A) (A) (A) (A) (A) (A) (A) (A) (A) (A)
                 (A) (A) (A) (A) (A) (A) (A) (A) (A) (A) (A) (A)
                 (A) (A) (A) (A) (A) (A) (A) (A) (A) (A) (A) (A)
                 (A) (A) (A) (A) (A) (A) (A) (A) (A) (A) (A) (A)
                 (A) (A) (A) (A) (A) (A) (A) (A) (A) (A) (A) (A)
                 (A) (A) (A) (A) (A) (A) (A) (A) (A) (A) (A) (A)
                 (A) (A) (A) (A) (A) (A) (A) (A) (A) (A) (A) (A)
                 (A) (A) (A) (A) (A) (A) (A) (A) (A) (A) (A) (A)
                 (A) (A) (A) (A) (A) (A) (A) (A) (A) (A) (A) (A)
                 (A) (A) (A) (A) (A) (A) (A) (A) (A) (A) (A) (A)
                 (A) (A) (A) (A) (A) (A) (A) (A) (A) (A) (A) (A)
                 (A) (A) (A) (A) (A) (A) (A) (A) (A) (A) (A) (A)
                 (A) (A) (A) (A) (A) (A) (A) (A) (A) (A) (A) (A)
                 (A) (A) (A) (A) (A) (A) (A) (A) (A) (A) (A) (A)
                 (A) (A) (A) (A) (A) (A) (A) (A) (A) (A) (A) (A)
                 (A) (A) (A) (A) (A) (A) (A) (A) (A) (A) (A) (A)
                 (A) (A) (A) (A) (A) (A) (A) (A) (A) (A) (A) (A)
                 (A) (A) (A) (A) (A) (A) (A) (A) (A) (A) (A) (A)
                 (A) (A) (A) (A)
 The electronic state is 1-A.
 Alpha  occ. eigenvalues --  -77.09174 -18.99324 -18.99285 -18.99163 -14.25151
 Alpha  occ. eigenvalues --  -10.16955 -10.16239 -10.15289  -6.53710  -4.70147
 Alpha  occ. eigenvalues --   -4.69908  -4.69898  -0.92375  -0.83979  -0.83716
 Alpha  occ. eigenvalues --   -0.83394  -0.75305  -0.63276  -0.53845  -0.47152
 Alpha  occ. eigenvalues --   -0.45784  -0.41246  -0.39718  -0.38081  -0.34549
 Alpha  occ. eigenvalues --   -0.33034  -0.31889  -0.31701  -0.25846  -0.24085
 Alpha  occ. eigenvalues --   -0.23973  -0.23878  -0.21863  -0.20751  -0.18390
 Alpha  occ. eigenvalues --   -0.17451
 Alpha virt. eigenvalues --    0.01730   0.06736   0.08460   0.09497   0.10699
 Alpha virt. eigenvalues --    0.13811   0.15035   0.17254   0.19788   0.21393
 Alpha virt. eigenvalues --    0.22730   0.24135   0.25134   0.28712   0.29900
 Alpha virt. eigenvalues --    0.31342   0.32051   0.32507   0.33701   0.34753
 Alpha virt. eigenvalues --    0.36190   0.37692   0.39995   0.41593   0.42572
 Alpha virt. eigenvalues --    0.44132   0.45221   0.46933   0.47983   0.50267
 Alpha virt. eigenvalues --    0.51490   0.51830   0.53475   0.55513   0.56656
 Alpha virt. eigenvalues --    0.57747   0.58306   0.58932   0.59603   0.61878
 Alpha virt. eigenvalues --    0.62372   0.64334   0.66822   0.68703   0.71427
 Alpha virt. eigenvalues --    0.72223   0.73747   0.75251   0.76552   0.77443
 Alpha virt. eigenvalues --    0.78261   0.80565   0.82196   0.85985   0.89124
 Alpha virt. eigenvalues --    0.91489   0.91681   0.92902   0.94101   0.95616
 Alpha virt. eigenvalues --    0.96936   0.97236   1.02286   1.03967   1.06647
 Alpha virt. eigenvalues --    1.11824   1.12438   1.14397   1.16032   1.16785
 Alpha virt. eigenvalues --    1.20953   1.22068   1.23538   1.26313   1.27725
 Alpha virt. eigenvalues --    1.29353   1.31225   1.32636   1.33261   1.34175
 Alpha virt. eigenvalues --    1.37604   1.38828   1.40391   1.41023   1.42179
 Alpha virt. eigenvalues --    1.42912   1.43378   1.45326   1.46585   1.48239
 Alpha virt. eigenvalues --    1.49144   1.50158   1.50793   1.53009   1.53350
 Alpha virt. eigenvalues --    1.57102   1.62598   1.62736   1.64247   1.65843
 Alpha virt. eigenvalues --    1.66821   1.70778   1.75528   1.76351   1.81247
 Alpha virt. eigenvalues --    1.86070   1.86696   1.90576   1.92980   1.97181
 Alpha virt. eigenvalues --    2.07069   2.08621   2.12380   2.18560   2.19735
 Alpha virt. eigenvalues --    2.25073   2.26104   2.30946   2.32908   2.34053
 Alpha virt. eigenvalues --    2.35820   2.36052   2.37980   2.38714   2.40529
 Alpha virt. eigenvalues --    2.41990   2.43601   2.44923   2.47416   2.49027
 Alpha virt. eigenvalues --    2.50480   2.56768   2.57621   2.58880   2.60230
 Alpha virt. eigenvalues --    2.64643   2.66843   2.72069   2.74282   2.76583
 Alpha virt. eigenvalues --    2.80022   2.83092   2.84952   2.87114   2.90424
 Alpha virt. eigenvalues --    2.91605   2.92638   2.94341   2.95396   2.97620
 Alpha virt. eigenvalues --    3.01200   3.02163   3.05732   3.08529   3.09467
 Alpha virt. eigenvalues --    3.11066   3.12399   3.15494   3.22983   3.24372
 Alpha virt. eigenvalues --    3.25992   3.27059   3.31106   3.32004   3.37395
 Alpha virt. eigenvalues --    3.39488   3.43406   3.45727   3.46423   3.48416
 Alpha virt. eigenvalues --    3.54683   3.58680   3.59539   3.61581   3.64728
 Alpha virt. eigenvalues --    3.66776   3.70583   3.72598   3.73810   3.76808
 Alpha virt. eigenvalues --    3.79071   3.81315   3.83288   3.86094   3.87267
 Alpha virt. eigenvalues --    3.88487   3.90294   3.91251   3.92924   3.93321
 Alpha virt. eigenvalues --    3.95710   3.97959   3.99221   4.00852   4.02329
 Alpha virt. eigenvalues --    4.04282   4.06317   4.08259   4.09399   4.10067
 Alpha virt. eigenvalues --    4.13848   4.16569   4.21724   4.25632   4.26720
 Alpha virt. eigenvalues --    4.30155   4.33241   4.36039   4.41822   4.42490
 Alpha virt. eigenvalues --    4.45537   4.46826   4.51759   4.64804   4.66300
 Alpha virt. eigenvalues --    4.70948   4.71842   4.72810   4.76553   4.77836
 Alpha virt. eigenvalues --    4.84804   4.86988   4.89834   4.92065   4.97133
 Alpha virt. eigenvalues --    5.00901   5.03358   5.06094   5.07507   5.12241
 Alpha virt. eigenvalues --    5.17974   5.19832   5.21258   5.22730   5.24343
 Alpha virt. eigenvalues --    5.24495   5.24727   5.24896   5.24992   5.25127
 Alpha virt. eigenvalues --    5.25874   5.27598   5.30172   5.30532   5.35284
 Alpha virt. eigenvalues --    5.37462   5.39174   5.40027   5.40270   5.40773
 Alpha virt. eigenvalues --    5.41683   5.45377   5.51422   5.54021   5.55452
 Alpha virt. eigenvalues --    5.58372   5.61328   5.66198   5.69925   5.70798
 Alpha virt. eigenvalues --    5.72967   5.74633   5.85017   5.85993   5.93954
 Alpha virt. eigenvalues --    5.98022   6.01692   6.11292   6.25629   6.35656
 Alpha virt. eigenvalues --    6.38177   6.39435   6.41374   6.46946   6.48308
 Alpha virt. eigenvalues --    6.53274   6.77491   6.78125   6.79194   6.79991
 Alpha virt. eigenvalues --    6.90848   6.93230   6.98189   6.99136   7.02601
 Alpha virt. eigenvalues --    9.07418   9.19494   9.63615  10.91378  10.99253
 Alpha virt. eigenvalues --   12.71966  14.02672
          Condensed to atoms (all electrons):
              1          2          3          4          5          6
     1  C    4.993378   0.365141   0.311974   0.265150  -0.054033  -0.060070
     2  H    0.365141   0.667634  -0.061139  -0.031655  -0.007436  -0.004152
     3  H    0.311974  -0.061139   0.754268  -0.040275   0.014478   0.001055
     4  C    0.265150  -0.031655  -0.040275   5.150486   0.369875   0.544624
     5  H   -0.054033  -0.007436   0.014478   0.369875   0.583590  -0.035292
     6  C   -0.060070  -0.004152   0.001055   0.544624  -0.035292   5.074361
     7  H   -0.006401  -0.000072   0.007453  -0.054672   0.008919   0.404096
     8  H    0.008691  -0.000460  -0.000568  -0.044282  -0.010542   0.409961
     9  N    0.318167  -0.052530  -0.060309  -0.046292   0.021276   0.006283
    10  H   -0.036534   0.013073  -0.011703  -0.004401  -0.001634   0.001892
    11  P   -0.049924   0.005170   0.012696  -0.008954   0.001481  -0.000702
    12  O   -0.007828  -0.003440   0.023332   0.002580   0.000075  -0.000044
    13  O   -0.002163   0.000267   0.000112  -0.000726  -0.000075   0.000001
    14  O   -0.013199   0.026142  -0.000452  -0.001695   0.000090  -0.000039
              7          8          9         10         11         12
     1  C   -0.006401   0.008691   0.318167  -0.036534  -0.049924  -0.007828
     2  H   -0.000072  -0.000460  -0.052530   0.013073   0.005170  -0.003440
     3  H    0.007453  -0.000568  -0.060309  -0.011703   0.012696   0.023332
     4  C   -0.054672  -0.044282  -0.046292  -0.004401  -0.008954   0.002580
     5  H    0.008919  -0.010542   0.021276  -0.001634   0.001481   0.000075
     6  C    0.404096   0.409961   0.006283   0.001892  -0.000702  -0.000044
     7  H    0.564785  -0.038665   0.000085   0.000062  -0.000166  -0.000031
     8  H   -0.038665   0.559252  -0.000443  -0.000156  -0.000023  -0.000001
     9  N    0.000085  -0.000443   6.988024   0.282084   0.153085  -0.077017
    10  H    0.000062  -0.000156   0.282084   0.626904   0.011386   0.000330
    11  P   -0.000166  -0.000023   0.153085   0.011386  12.139129   0.661518
    12  O   -0.000031  -0.000001  -0.077017   0.000330   0.661518   8.362325
    13  O   -0.000001   0.000000  -0.076977   0.009892   0.677510  -0.069809
    14  O    0.000001   0.000000  -0.072399   0.003651   0.664138  -0.070779
             13         14
     1  C   -0.002163  -0.013199
     2  H    0.000267   0.026142
     3  H    0.000112  -0.000452
     4  C   -0.000726  -0.001695
     5  H   -0.000075   0.000090
     6  C    0.000001  -0.000039
     7  H   -0.000001   0.000001
     8  H    0.000000   0.000000
     9  N   -0.076977  -0.072399
    10  H    0.009892   0.003651
    11  P    0.677510   0.664138
    12  O   -0.069809  -0.070779
    13  O    8.346094  -0.064815
    14  O   -0.064815   8.344134
 Mulliken atomic charges:
              1
     1  C   -0.032350
     2  H    0.083458
     3  H    0.049079
     4  C   -0.099763
     5  H    0.109229
     6  C   -0.341972
     7  H    0.114606
     8  H    0.117237
     9  N   -0.383035
    10  H    0.105155
    11  P    0.733656
    12  O   -0.821211
    13  O   -0.819310
    14  O   -0.814778
 Sum of Mulliken charges=  -2.00000
 Atomic charges with hydrogens summed into heavy atoms:
              1
     1  C    0.100188
     2  H    0.000000
     3  H    0.000000
     4  C    0.009465
     5  H    0.000000
     6  C   -0.110130
     7  H    0.000000
     8  H    0.000000
     9  N   -0.277880
    10  H    0.000000
    11  P    0.733656
    12  O   -0.821211
    13  O   -0.819310
    14  O   -0.814778
 Sum of Mulliken charges=  -2.00000
 Electronic spatial extent (au):  <R**2>=  1460.2640
 Charge=    -2.0000 electrons
 Dipole moment (field-independent basis, Debye):
    X=   -15.9046    Y=    -0.0770    Z=    -0.8036  Tot=    15.9251
 Quadrupole moment (field-independent basis, Debye-Ang):
   XX=   -94.1429   YY=   -72.9984   ZZ=   -71.3970
   XY=     0.5983   XZ=     1.6704   YZ=    -0.1366
 Traceless Quadrupole moment (field-independent basis, Debye-Ang):
   XX=   -14.6302   YY=     6.5144   ZZ=     8.1158
   XY=     0.5983   XZ=     1.6704   YZ=    -0.1366
 Octapole moment (field-independent basis, Debye-Ang**2):
  XXX=   -47.2076  YYY=   -11.4767  ZZZ=    -9.8615  XYY=   -21.9000
  XXY=     5.0560  XXZ=     3.0806  XZZ=   -20.1068  YZZ=     6.3288
  YYZ=     4.4252  XYZ=     0.7558
 Hexadecapole moment (field-independent basis, Debye-Ang**3):
 XXXX= -1697.0141 YYYY=  -265.9234 ZZZZ=  -250.3169 XXXY=    35.5407
 XXXZ=    42.5011 YYYX=   -18.5019 YYYZ=    -0.7121 ZZZX=   -11.7502
 ZZZY=     2.1981 XXYY=  -328.6304 XXZZ=  -363.5875 YYZZ=   -83.9638
 XXYZ=   -13.9139 YYXZ=     9.0696 ZZXY=    12.9631
 N-N= 4.598014736118D+02 E-N=-2.694845051124D+03  KE= 7.365234548948D+02
 Calculating spin-rotation constants.
 Leave Link  601 at Thu Jul 10 05:06:46 2008, MaxMem=  536870912 cpu:      35.8
 (Enter /usr/local/Chem-Apps/g03_d01/g03/l9999.exe)
 1\1\ SGI ALTIX 4700 1.6GHZ/9MB-MAGELLAN\SP\RB3LYP\CC-pVTZ\C3H6N1O3P1(2
 -)\IK1\10-Jul-2008\0\\#p nmr=giao b3lyp/cc-pVTZ guess=read geom=checkp
 oint integral=(grid=ultrafine) scrf=(pcm,solvent=water,read) scf=(tigh
 t,novaracc,noincfock)\\Phosphamine form A, chemical shifts.\\-2,1\C,0,
 -1.3397421414,0.1837920254,0.3927991036\H,0,-1.1024007305,-0.025626285
 5,1.4636890726\H,0,-1.4140166678,1.2959194561,0.2947701911\C,0,-2.6657
 872824,-0.4394215974,0.0735409269\H,0,-2.6930888905,-1.5265283556,0.13
 65222731\C,0,-3.7642898039,0.2183431895,-0.2846388623\H,0,-3.770724646
 8,1.2995598949,-0.3738592511\H,0,-4.6944216352,-0.2947398137,-0.497107
 2417\N,0,-0.2690262853,-0.4006082646,-0.4152621665\H,0,-0.4317951017,-
 0.1789652897,-1.3986021937\P,0,1.3916997485,0.0449201504,-0.0170177325
 \O,0,1.4611066361,1.5823274451,0.0464217004\O,0,2.1808298116,-0.553510
 1845,-1.1912609629\O,0,1.6616721985,-0.6238078082,1.3397549962\\Versio
 n=IA64L-G03RevD.01\State=1-A\HF=-740.2480467\RMSD=6.044e-09\Thermal=0.
 \Dipole=-6.2547139,-0.0107303,-0.3656018\PG=C01 [X(C3H6N1O3P1)]\\@


 ... IT CAN BE VERY DIFFICULT, IN THESE COMPLEX TIMES,
 TO UNDERSTAND JUST HOW SCIENTISTS DO WHAT THEY DO.

                     DON MOSER IN THE FEBRUARY 1979 SMITHSONIAN
 Job cpu time:  0 days  0 hours 19 minutes  3.3 seconds.
 File lengths (MBytes):  RWF=    515 Int=      0 D2E=      0 Chk=     25 Scr=      1
 Normal termination of Gaussian 03 at Thu Jul 10 05:06:46 2008.
