 Entering Gaussian System, Link 0=g03
 Input=./ethylcarbazole_cat_hfc.com
 Output=./ethylcarbazole_cat_hfc.log
 Initial command:
 /home/konrad/guests/guik/Gaussian/g03/l1.exe /scratch/Gau-18034.inp -scrdir=/scratch/
 Entering Link 1 = /home/konrad/guests/guik/Gaussian/g03/l1.exe PID=     18035.
  
 Copyright (c) 1988,1990,1992,1993,1995,1998,2003,2004, Gaussian, Inc.
                  All Rights Reserved.
  
 This is the Gaussian(R) 03 program.  It is based on the
 the Gaussian(R) 98 system (copyright 1998, Gaussian, Inc.),
 the Gaussian(R) 94 system (copyright 1995, Gaussian, Inc.),
 the Gaussian 92(TM) system (copyright 1992, Gaussian, Inc.),
 the Gaussian 90(TM) system (copyright 1990, Gaussian, Inc.),
 the Gaussian 88(TM) system (copyright 1988, Gaussian, Inc.),
 the Gaussian 86(TM) system (copyright 1986, Carnegie Mellon
 University), and the Gaussian 82(TM) system (copyright 1983,
 Carnegie Mellon University). Gaussian is a federally registered
 trademark of Gaussian, Inc.
  
 This software contains proprietary and confidential information,
 including trade secrets, belonging to Gaussian, Inc.
  
 This software is provided under written license and may be
 used, copied, transmitted, or stored only in accord with that
 written license.
  
 The following legend is applicable only to US Government
 contracts under FAR:
  
                    RESTRICTED RIGHTS LEGEND
  
 Use, reproduction and disclosure by the US Government is
 subject to restrictions as set forth in subparagraphs (a)
 and (c) of the Commercial Computer Software - Restricted
 Rights clause in FAR 52.227-19.
  
 Gaussian, Inc.
 340 Quinnipiac St., Bldg. 40, Wallingford CT 06492
  
  
 ---------------------------------------------------------------
 Warning -- This program may not be used in any manner that
 competes with the business of Gaussian, Inc. or will provide
 assistance to any competitor of Gaussian, Inc.  The licensee
 of this program is prohibited from giving any competitor of
 Gaussian, Inc. access to this program.  By using this program,
 the user acknowledges that Gaussian, Inc. is engaged in the
 business of creating and licensing software in the field of
 computational chemistry and represents and warrants to the
 licensee that it is not a competitor of Gaussian, Inc. and that
 it will not use this program in any manner prohibited above.
 ---------------------------------------------------------------
  

 Cite this work as:
 Gaussian 03, Revision D.02,
 M. J. Frisch, G. W. Trucks, H. B. Schlegel, G. E. Scuseria, 
 M. A. Robb, J. R. Cheeseman, J. A. Montgomery, Jr., T. Vreven, 
 K. N. Kudin, J. C. Burant, J. M. Millam, S. S. Iyengar, J. Tomasi, 
 V. Barone, B. Mennucci, M. Cossi, G. Scalmani, N. Rega, 
 G. A. Petersson, H. Nakatsuji, M. Hada, M. Ehara, K. Toyota, 
 R. Fukuda, J. Hasegawa, M. Ishida, T. Nakajima, Y. Honda, O. Kitao, 
 H. Nakai, M. Klene, X. Li, J. E. Knox, H. P. Hratchian, J. B. Cross, 
 V. Bakken, C. Adamo, J. Jaramillo, R. Gomperts, R. E. Stratmann, 
 O. Yazyev, A. J. Austin, R. Cammi, C. Pomelli, J. W. Ochterski, 
 P. Y. Ayala, K. Morokuma, G. A. Voth, P. Salvador, J. J. Dannenberg, 
 V. G. Zakrzewski, S. Dapprich, A. D. Daniels, M. C. Strain, 
 O. Farkas, D. K. Malick, A. D. Rabuck, K. Raghavachari, 
 J. B. Foresman, J. V. Ortiz, Q. Cui, A. G. Baboul, S. Clifford, 
 J. Cioslowski, B. B. Stefanov, G. Liu, A. Liashenko, P. Piskorz, 
 I. Komaromi, R. L. Martin, D. J. Fox, T. Keith, M. A. Al-Laham, 
 C. Y. Peng, A. Nanayakkara, M. Challacombe, P. M. W. Gill, 
 B. Johnson, W. Chen, M. W. Wong, C. Gonzalez, and J. A. Pople, 
 Gaussian, Inc., Wallingford CT, 2004.
 
 ******************************************
 Gaussian 03:  AM64L-G03RevD.02  1-Mar-2006
                 1-Dec-2006 
 ******************************************
 %Chk=eth.chk
 %Mem=2GB
 %NProcShared=14
 Will use up to   14 processors via shared memory.
 ----------------------------------------------------------------------
 #p ub3lyp/EPR-II guess=mix geom=connectivity scf=(tight,novaracc,noinc
 fock) integral=(grid=ultrafine) scrf=(pcm,solvent=thf)
 ----------------------------------------------------------------------
 1/38=1,57=2/1;
 2/17=6,18=5,40=1/2;
 3/5=21,11=2,16=1,25=1,30=1,70=2201,72=20,74=-5,75=5/1,2,3;
 4/7=2,9=2,13=1/1;
 5/5=100002,32=2,38=1,53=20/2;
 6/7=2,8=2,9=2,10=2,28=1/1;
 99/5=1,9=1/99;
 Leave Link    1 at Fri Dec  1 15:05:12 2006, MaxMem=  268435456 cpu:       0.7
 (Enter /home/konrad/guests/guik/Gaussian/g03/l101.exe)
 ------------------------------------------
 Ethylcarbazole cation hyperfine couplings.
 ------------------------------------------
 Symbolic Z-matrix:
 Charge =  1 Multiplicity = 2
 C
 C                    1    B1
 C                    2    B2       1    A1
 C                    3    B3       2    A2       1    D1       0
 C                    4    B4       3    A3       2    D2       0
 C                    5    B5       4    A4       3    D3       0
 H                    1    B6       2    A5       3    D4       0
 H                    4    B7       3    A6       2    D5       0
 H                    5    B8       4    A7       3    D6       0
 H                    6    B9       5    A8       4    D7       0
 C                    2    B10      1    A9       6    D8       0
 C                    11   B11      2    A10      1    D9       0
 C                    11   B12      2    A11      1    D10      0
 C                    12   B13      11   A12      2    D11      0
 C                    13   B14      11   A13      2    D12      0
 H                    13   B15      11   A14      2    D13      0
 C                    14   B16      12   A15      11   D14      0
 H                    14   B17      12   A16      11   D15      0
 H                    15   B18      13   A17      11   D16      0
 H                    17   B19      14   A18      12   D17      0
 N                    12   B20      11   A19      2    D18      0
 C                    21   B21      12   A20      11   D19      0
 H                    22   B22      21   A21      12   D20      0
 H                    22   B23      21   A22      12   D21      0
 C                    22   B24      21   A23      12   D22      0
 H                    25   B25      22   A24      21   D23      0
 H                    25   B26      22   A25      21   D24      0
 H                    25   B27      22   A26      21   D25      0
       Variables:
  B1                    1.37965                  
  B2                    1.42213                  
  B3                    1.40068                  
  B4                    1.39278                  
  B5                    1.39837                  
  B6                    1.08306                  
  B7                    1.08226                  
  B8                    1.08242                  
  B9                    1.08321                  
  B10                   1.46236                  
  B11                   1.42213                  
  B12                   1.37965                  
  B13                   1.40068                  
  B14                   1.41061                  
  B15                   1.08306                  
  B16                   1.39278                  
  B17                   1.08226                  
  B18                   1.08321                  
  B19                   1.08242                  
  B20                   1.38318                  
  B21                   1.46651                  
  B22                   1.09037                  
  B23                   1.09037                  
  B24                   1.53258                  
  B25                   1.09161                  
  B26                   1.09156                  
  B27                   1.09156                  
  A1                  119.36537                  
  A2                  122.40685                  
  A3                  117.30824                  
  A4                  120.80474                  
  A5                  121.38406                  
  A6                  121.91901                  
  A7                  119.51539                  
  A8                  119.37013                  
  A9                  134.34152                  
  A10                 106.29309                  
  A11                 134.34152                  
  A12                 122.40685                  
  A13                 118.57984                  
  A14                 121.38406                  
  A15                 117.30824                  
  A16                 121.91901                  
  A17                 119.09513                  
  A18                 119.51539                  
  A19                 108.91288                  
  A20                 125.18122                  
  A21                 107.3084                   
  A22                 107.3084                   
  A23                 112.24152                  
  A24                 108.86843                  
  A25                 111.23804                  
  A26                 111.23804                  
  D1                   -0.15243                  
  D2                    0.0471                   
  D3                    0.08161                  
  D4                 -179.91686                  
  D5                 -179.87266                  
  D6                 -179.99625                  
  D7                  179.87309                  
  D8                 -179.93736                  
  D9                 -179.94452                  
  D10                   0.                       
  D11                -179.8931                   
  D12                 179.93736                  
  D13                  -0.02203                  
  D14                  -0.0471                   
  D15                 179.87266                  
  D16                 179.98003                  
  D17                 179.99625                  
  D18                   0.24751                  
  D19                -177.91739                  
  D20                -148.90024                  
  D21                 -33.97568                  
  D22                  88.56204                  
  D23                 180.                       
  D24                 -60.6208                   
  D25                  60.6208                   
 
                    Isotopes and Nuclear Properties:
 (Nuclear quadrupole moments (NQMom) in fm**2, nuclear magnetic moments (NMagM)
  in nuclear magnetons)

  Atom         1           2           3           4           5           6           7           8           9          10
 IAtWgt=          12          12          12          12          12          12           1           1           1           1
 AtmWgt=  12.0000000  12.0000000  12.0000000  12.0000000  12.0000000  12.0000000   1.0078250   1.0078250   1.0078250   1.0078250
 NucSpn=           0           0           0           0           0           0           1           1           1           1
 AtZEff=   0.0000000   0.0000000   0.0000000   0.0000000   0.0000000   0.0000000   0.0000000   0.0000000   0.0000000   0.0000000
 NQMom=    0.0000000   0.0000000   0.0000000   0.0000000   0.0000000   0.0000000   0.0000000   0.0000000   0.0000000   0.0000000
 NMagM=    0.0000000   0.0000000   0.0000000   0.0000000   0.0000000   0.0000000   2.7928460   2.7928460   2.7928460   2.7928460

  Atom        11          12          13          14          15          16          17          18          19          20
 IAtWgt=          12          12          12          12          12           1          12           1           1           1
 AtmWgt=  12.0000000  12.0000000  12.0000000  12.0000000  12.0000000   1.0078250  12.0000000   1.0078250   1.0078250   1.0078250
 NucSpn=           0           0           0           0           0           1           0           1           1           1
 AtZEff=   0.0000000   0.0000000   0.0000000   0.0000000   0.0000000   0.0000000   0.0000000   0.0000000   0.0000000   0.0000000
 NQMom=    0.0000000   0.0000000   0.0000000   0.0000000   0.0000000   0.0000000   0.0000000   0.0000000   0.0000000   0.0000000
 NMagM=    0.0000000   0.0000000   0.0000000   0.0000000   0.0000000   2.7928460   0.0000000   2.7928460   2.7928460   2.7928460

  Atom        21          22          23          24          25          26          27          28
 IAtWgt=          14          12           1           1          12           1           1           1
 AtmWgt=  14.0030740  12.0000000   1.0078250   1.0078250  12.0000000   1.0078250   1.0078250   1.0078250
 NucSpn=           2           0           1           1           0           1           1           1
 AtZEff=   0.0000000   0.0000000   0.0000000   0.0000000   0.0000000   0.0000000   0.0000000   0.0000000
 NQMom=    2.0440000   0.0000000   0.0000000   0.0000000   0.0000000   0.0000000   0.0000000   0.0000000
 NMagM=    0.4037610   0.0000000   2.7928460   2.7928460   0.0000000   2.7928460   2.7928460   2.7928460
 Leave Link  101 at Fri Dec  1 15:05:16 2006, MaxMem=  268435456 cpu:       0.3
 (Enter /home/konrad/guests/guik/Gaussian/g03/l202.exe)
                          Input orientation:                          
 ---------------------------------------------------------------------
 Center     Atomic     Atomic              Coordinates (Angstroms)
 Number     Number      Type              X           Y           Z
 ---------------------------------------------------------------------
    1          6             0        0.000000    0.000000    0.000000
    2          6             0        0.000000    0.000000    1.379652
    3          6             0        1.239398    0.000000    2.077030
    4          6             0        2.473497   -0.003146    1.414544
    5          6             0        2.451145   -0.005328    0.021949
    6          6             0        1.238729   -0.002675   -0.674813
    7          1             0       -0.924602    0.001342   -0.564027
    8          1             0        3.412137   -0.005163    1.953272
    9          1             0        3.384414   -0.007845   -0.526361
   10          1             0        1.248471   -0.002366   -1.757981
   11          6             0       -1.045861    0.001115    2.401746
   12          6             0       -0.377151    0.001724    3.656844
   13          6             0       -2.425147    0.002586    2.370037
   14          6             0       -1.067827    0.000631    4.875393
   15          6             0       -3.128253    0.001982    3.592931
   16          1             0       -2.967774    0.003521    1.432714
   17          6             0       -2.459543   -0.000091    4.821043
   18          1             0       -0.550816   -0.000937    5.826168
   19          1             0       -4.211358    0.003456    3.577776
   20          1             0       -3.029158   -0.001005    5.741466
   21          7             0        0.988471    0.006692    3.437238
   22          6             0        2.013032   -0.034763    4.485669
   23          1             0        2.878683    0.515076    4.115227
   24          1             0        1.623394    0.516415    5.341990
   25          6             0        2.389511   -1.469142    4.872467
   26          1             0        3.152135   -1.435744    5.652788
   27          1             0        1.525970   -2.014335    5.257912
   28          1             0        2.794105   -2.015687    4.018594
 ---------------------------------------------------------------------
                    Distance matrix (angstroms):
                    1          2          3          4          5
     1  C    0.000000
     2  C    1.379652   0.000000
     3  C    2.418711   1.422127   0.000000
     4  C    2.849409   2.473745   1.400677   0.000000
     5  C    2.451249   2.802052   2.385732   1.392777   0.000000
     6  C    1.410613   2.399017   2.751844   2.426946   1.398369
     7  H    1.083060   2.152389   3.414394   3.932155   3.426234
     8  H    3.931663   3.460021   2.176266   1.082255   2.157201
     9  H    3.425110   3.884225   3.373247   2.144039   1.082424
    10  H    2.156196   3.376895   3.835022   3.400824   2.148158
    11  C    2.619582   1.462362   2.308214   3.655197   4.229956
    12  C    3.676242   2.308214   2.260320   3.626861   4.605624
    13  C    3.390932   2.619582   3.676242   4.990963   5.412190
    14  C    4.990963   3.655197   3.626861   4.951612   5.994925
    15  C    4.763940   3.832046   4.623239   6.010407   6.624323
    16  H    3.295507   2.968251   4.256226   5.441306   5.599556
    17  C    5.412190   4.229956   4.605624   5.994925   6.866308
    18  H    5.852148   4.480503   4.154625   5.348729   6.534582
    19  H    5.525941   4.750505   5.653582   7.026158   7.552015
    20  H    6.491551   5.310483   5.625715   7.000105   7.921276
    21  N    3.576552   2.282713   1.383175   2.509320   3.715341
    22  C    4.916780   3.701466   2.530071   3.105613   4.485265
    23  H    5.048486   4.004434   2.665859   2.779644   4.148318
    24  H    5.607045   4.313029   3.327777   4.051845   5.409273
    25  C    5.622194   4.479721   3.360893   3.756784   5.066959
    26  H    6.629580   5.500637   4.301856   4.524997   5.851823
    27  H    5.833675   4.628934   3.775934   4.440063   5.683957
    28  H    5.293309   4.339820   3.201528   3.306688   4.486908
                    6          7          8          9         10
     6  C    0.000000
     7  H    2.166170   0.000000
     8  H    3.410358   5.014394   0.000000
     9  H    2.150821   4.309191   2.479789   0.000000
    10  H    1.083212   2.479473   4.295911   2.465598   0.000000
    11  C    3.832046   2.968251   4.480503   5.310483   4.750505
    12  C    4.623239   4.256226   4.154625   5.625715   5.653582
    13  C    4.763940   3.295507   5.852148   6.491551   5.525941
    14  C    6.010407   5.441306   5.348729   7.000105   7.026158
    15  C    6.106078   4.704931   6.742791   7.706069   6.912886
    16  H    4.704931   2.856840   6.401119   6.647436   5.287466
    17  C    6.624323   5.599556   6.534582   7.921276   7.552015
    18  H    6.742791   6.401119   5.541150   7.472664   7.794662
    19  H    6.912886   5.287466   7.794662   8.633644   7.634138
    20  H    7.706069   6.647436   7.472664   8.967698   8.633644
    21  N    4.119670   4.435087   2.841910   4.631508   5.201728
    22  C    5.218347   5.842125   2.893338   5.196330   6.290371
    23  H    5.089401   6.051804   2.286760   4.698249   6.117182
    24  H    6.051392   6.452800   3.867177   6.149275   7.128765
    25  C    5.852105   6.534611   3.422090   5.680894   6.885945
    26  H    6.764122   7.571908   3.974995   6.346237   7.784472
    27  H    6.271085   6.630477   4.302911   6.398251   7.303956
    28  H    5.338491   6.236795   2.947834   5.003650   6.309617
                   11         12         13         14         15
    11  C    0.000000
    12  C    1.422127   0.000000
    13  C    1.379652   2.418711   0.000000
    14  C    2.473745   1.400677   2.849409   0.000000
    15  C    2.399017   2.751844   1.410613   2.426946   0.000000
    16  H    2.152389   3.414394   1.083060   3.932155   2.166170
    17  C    2.802052   2.385732   2.451249   1.392777   1.398369
    18  H    3.460021   2.176266   3.931663   1.082255   3.410358
    19  H    3.376895   3.835022   2.156196   3.400824   1.083212
    20  H    3.884225   3.373247   3.425110   2.144039   2.150821
    21  N    2.282713   1.383175   3.576552   2.509320   4.119670
    22  C    3.701466   2.530071   4.916780   3.105613   5.218347
    23  H    4.313029   3.327777   5.607045   4.051845   6.051392
    24  H    4.004434   2.665859   5.048486   2.779644   5.089401
    25  C    4.479721   3.360893   5.622194   3.756784   5.852105
    26  H    5.500637   4.301856   6.629580   4.524997   6.764122
    27  H    4.339820   3.201528   5.293309   3.306688   5.338491
    28  H    4.628934   3.775934   5.833675   4.440063   6.271085
                   16         17         18         19         20
    16  H    0.000000
    17  C    3.426234   0.000000
    18  H    5.014394   2.157201   0.000000
    19  H    2.479473   2.148158   4.295911   0.000000
    20  H    4.309191   1.082424   2.479789   2.465598   0.000000
    21  N    4.435087   3.715341   2.841910   5.201728   4.631508
    22  C    5.842125   4.485265   2.893338   6.290371   5.196330
    23  H    6.452800   5.409273   3.867177   7.128765   6.149275
    24  H    6.051804   4.148318   2.286760   6.117182   4.698249
    25  C    6.534611   5.066959   3.422090   6.885945   5.680894
    26  H    7.571908   5.851823   3.974995   7.784472   6.346237
    27  H    6.236795   4.486908   2.947834   6.309617   5.003650
    28  H    6.630477   5.683957   4.302911   7.303956   6.398251
                   21         22         23         24         25
    21  N    0.000000
    22  C    1.466510   0.000000
    23  H    2.071479   1.090368   0.000000
    24  H    2.071479   1.090368   1.755192   0.000000
    25  C    2.490157   1.532577   2.179409   2.179409   0.000000
    26  H    3.416245   2.149993   2.498914   2.498914   1.091610
    27  H    2.772780   2.179975   3.087633   2.534019   1.091561
    28  H    2.772780   2.179975   2.534019   3.087633   1.091561
                   26         27         28
    26  H    0.000000
    27  H    1.770623   0.000000
    28  H    1.770623   1.773154   0.000000
 Stoichiometry    C14H13N(1+,2)
 Framework group  CS[SG(C2HN),X(C12H12)]
 Deg. of freedom    41
 Full point group                 CS
 Largest Abelian subgroup         CS      NOp   2
 Largest concise Abelian subgroup CS      NOp   2
                         Standard orientation:                         
 ---------------------------------------------------------------------
 Center     Atomic     Atomic              Coordinates (Angstroms)
 Number     Number      Type              X           Y           Z
 ---------------------------------------------------------------------
    1          6             0        2.049111    0.173409   -1.695466
    2          6             0        1.073072    0.028700   -0.731181
    3          6             0       -0.276987   -0.172798   -1.130160
    4          6             0       -0.661806   -0.228002   -2.475806
    5          6             0        0.338519   -0.077462   -3.433154
    6          6             0        1.669882    0.118553   -3.053039
    7          1             0        3.087435    0.326993   -1.428420
    8          1             0       -1.692034   -0.379718   -2.770575
    9          1             0        0.080957   -0.114111   -4.483849
   10          1             0        2.429484    0.230850   -3.817069
   11          6             0        1.073072    0.028700    0.731181
   12          6             0       -0.276987   -0.172798    1.130160
   13          6             0        2.049111    0.173409    1.695466
   14          6             0       -0.661806   -0.228002    2.475806
   15          6             0        1.669882    0.118553    3.053039
   16          1             0        3.087435    0.326993    1.428420
   17          6             0        0.338519   -0.077462    3.433154
   18          1             0       -1.692034   -0.379718    2.770575
   19          1             0        2.429484    0.230850    3.817069
   20          1             0        0.080957   -0.114111    4.483849
   21          7             0       -1.064838   -0.296101    0.000000
   22          6             0       -2.520861   -0.471169    0.000000
   23          1             0       -2.776102   -1.065794   -0.877596
   24          1             0       -2.776102   -1.065794    0.877596
   25          6             0       -3.266153    0.867984    0.000000
   26          1             0       -4.340412    0.674128    0.000000
   27          1             0       -3.022300    1.456221    0.886577
   28          1             0       -3.022300    1.456221   -0.886577
 ---------------------------------------------------------------------
 Rotational constants (GHZ):      0.9292683      0.5726366      0.3665181
 Leave Link  202 at Fri Dec  1 15:05:20 2006, MaxMem=  268435456 cpu:       0.1
 (Enter /home/konrad/guests/guik/Gaussian/g03/l301.exe)
 Standard basis: EPR-II (5D, 7F)
 There are   189 symmetry adapted basis functions of A'  symmetry.
 There are   157 symmetry adapted basis functions of A"  symmetry.
 Integral buffers will be    131072 words long.
 Raffenetti 2 integral format.
 Two-electron integral symmetry is turned on.
   346 basis functions,   582 primitive gaussians,   361 cartesian basis functions
    52 alpha electrons       51 beta electrons
       nuclear repulsion energy       923.0593996137 Hartrees.
 IExCor= 402 DFT=T Ex=B+HF Corr=LYP ExCW=0 ScaHFX=  0.200000
 ScaDFX=  0.800000  0.720000  1.000000  0.810000
 IRadAn=      5 IRanWt=     -1 IRanGd=            0 ICorTp=0
 NAtoms=   28 NActive=   28 NUniq=   16 SFac= 2.30D+00 NAtFMM=   80 NAOKFM=F Big=F
 ------------------------------------------------------------------------------
 United Atom Topological Model (UA0  parameters set).
  Nord Group  Hybr  Charge Alpha Radius          Bonded to
    1   CH    *     0.00   1.00  2.125   C2   [d]  C6   [s]
    2   C     *     0.00   1.00  1.925   C1   [d]  C3   [s]  C11  [s]
    3   C     *     0.00   1.00  1.925   C2   [s]  C4   [s]  N21  [s]
    4   CH    *     0.00   1.00  2.125   C3   [s]  C5   [s]
    5   CH    *     0.00   1.00  2.125   C4   [s]  C6   [s]
    6   CH    *     0.00   1.00  2.125   C1   [s]  C5   [s]
   11   C     *     0.00   1.00  1.925   C2   [s]  C12  [s]  C13  [d]
   12   C     *     0.00   1.00  1.925   C11  [s]  C14  [s]  N21  [s]
   13   CH    *     0.00   1.00  2.125   C11  [d]  C15  [s]
   14   CH    *     0.00   1.00  2.125   C12  [s]  C17  [s]
   15   CH    *     0.00   1.00  2.125   C13  [s]  C17  [s]
   17   CH    *     0.00   1.00  2.125   C14  [s]  C15  [s]
   21   N     *     0.00   1.00  1.830   C3   [s]  C12  [s]  C22  [s]
   22   CH2   *     0.00   1.00  2.325   N21  [s]  C25  [s]
   25   CH3   *     0.00   1.00  2.525   C22  [s]
 ------------------------------------------------------------------------------
 Polarizable Continuum Model (PCM)
 =================================
 Model                : PCM.
 Atomic radii         : UA0 (Simple United Atom Topological Model).
 Polarization charges : Total charges.
 Charge compensation  : None.
 Solution method      : Matrix inversion.
 Cavity               : GePol (RMin=0.200 OFac=0.890).
                        Default sphere list used, NSphG=   15.
                        Tesserae with average area of 0.200 Ang**2.
 Solvent              : THF, Eps     =   7.580000
                               Eps(inf)=   1.971000
                               RSolv   =   2.560000 Ang.
 ------------------------------------------------------------------------------
 Using symmetry in molecular cavity generation.
 GePol: Number of tesserae being generated         =    2112
 GePol: Average area of tesserae                   =       0.12 Ang**2
 GePol: Minimum area of tessera                    =   0.10D-02 Ang**2
 GePol: Maximum area of tessera                    =    0.26600 Ang**2
 GePol: Number of small tesserae                   =      10
 GePol: Fraction of small tesserae (<1% of avg)    =       0.47%
 GePol: Total count of vertices                    =    7634
 GePol: Maximum number of vertices in a tessera    =       8
 GePol: Cavity surface area                        =    245.450 Ang**2
 GePol: Cavity volume                              =    282.697 Ang**3
 Leave Link  301 at Fri Dec  1 15:05:28 2006, MaxMem=  268435456 cpu:       4.1
 (Enter /home/konrad/guests/guik/Gaussian/g03/l302.exe)
 NPDir=0 NMtPBC=     1 NCelOv=     1 NCel=       1 NClECP=     1 NCelD=      1
         NCelK=      1 NCelE2=     1 NClLst=     1 CellRange=     0.0.
 One-electron integrals computed using PRISM.
 One-electron integral symmetry used in STVInt
 NBasis=   346 RedAO= T  NBF=   189   157
 NBsUse=   346 1.00D-06 NBFU=   189   157
 Precomputing XC quadrature grid using
 IXCGrd= 2 IRadAn=           5 IRanWt=          -1 IRanGd=           0.
 NRdTot=    2375 NPtTot=      639084 NUsed=      655822 NTot=      655854
 NSgBfM=   340   340   340   340.
 Leave Link  302 at Fri Dec  1 15:05:33 2006, MaxMem=  268435456 cpu:       1.1
 (Enter /home/konrad/guests/guik/Gaussian/g03/l303.exe)
 DipDrv:  MaxL=1.
 Leave Link  303 at Fri Dec  1 15:05:38 2006, MaxMem=  268435456 cpu:       0.1
 (Enter /home/konrad/guests/guik/Gaussian/g03/l401.exe)
 SCF N**3 symmetry information disabled.
 Harris functional with IExCor=  402 diagonalized for initial guess.
 ExpMin= 4.79D-02 ExpMax= 5.91D+03 ExpMxC= 8.87D+02 IAcc=3 IRadAn=         5 AccDes= 0.00D+00
 HarFok:  IExCor= 402 AccDes= 0.00D+00 IRadAn=         5 IDoV=1
 ScaDFX=  1.000000  1.000000  1.000000  1.000000
 Harris En= -596.056884715147    
 Initial guess orbital symmetries:
 Alpha Orbitals:
       Occupied  (A') (A') (A') (A") (A') (A") (A') (A") (A') (A")
                 (A") (A') (A") (A') (A') (A') (A") (A') (A') (A')
                 (A") (A") (A') (A') (A') (A") (A") (A') (A') (A")
                 (A') (A') (A") (A") (A") (A') (A') (A') (A") (A')
                 (A') (A") (A') (A") (A") (A') (A") (A') (A') (A")
                 (A") (A')
       Virtual   (A') (A") (A') (A") (A') (A') (A") (A') (A') (A')
                 (A") (A") (A') (A') (A') (A") (A") (A') (A') (A")
                 (A") (A') (A") (A') (A") (A') (A') (A') (A") (A')
                 (A") (A") (A') (A') (A") (A') (A") (A') (A") (A')
                 (A') (A") (A") (A') (A") (A') (A") (A') (A") (A')
                 (A') (A") (A') (A") (A') (A") (A') (A") (A') (A')
                 (A') (A") (A') (A') (A") (A") (A') (A') (A") (A')
                 (A") (A') (A") (A") (A") (A') (A") (A') (A') (A")
                 (A") (A') (A") (A') (A") (A') (A') (A') (A") (A')
                 (A") (A") (A') (A') (A') (A') (A") (A') (A") (A")
                 (A') (A") (A') (A") (A') (A") (A') (A") (A') (A')
                 (A') (A") (A') (A") (A') (A") (A') (A") (A') (A')
                 (A") (A') (A") (A") (A") (A') (A') (A") (A') (A")
                 (A') (A') (A") (A") (A') (A") (A') (A") (A") (A')
                 (A") (A') (A') (A') (A") (A') (A") (A") (A') (A")
                 (A") (A') (A') (A') (A") (A') (A') (A") (A") (A")
                 (A') (A') (A') (A") (A') (A') (A") (A') (A") (A')
                 (A") (A") (A') (A') (A") (A') (A') (A") (A") (A")
                 (A') (A") (A") (A') (A") (A') (A") (A') (A") (A')
                 (A') (A") (A') (A') (A") (A") (A') (A") (A') (A')
                 (A') (A") (A") (A') (A') (A") (A") (A') (A") (A')
                 (A") (A') (A") (A") (A') (A') (A") (A") (A') (A')
                 (A') (A") (A') (A") (A') (A') (A") (A") (A') (A")
                 (A') (A') (A") (A") (A") (A') (A') (A") (A') (A')
                 (A") (A") (A') (A") (A') (A") (A') (A") (A') (A')
                 (A") (A') (A') (A') (A') (A") (A") (A") (A') (A')
                 (A") (A') (A") (A') (A") (A') (A') (A') (A") (A')
                 (A') (A") (A') (A") (A') (A") (A') (A") (A') (A")
                 (A') (A") (A") (A') (A") (A') (A") (A') (A') (A")
                 (A') (A') (A") (A')
 Beta  Orbitals:
       Occupied  (A') (A') (A') (A") (A') (A") (A') (A") (A') (A")
                 (A") (A') (A") (A') (A') (A') (A") (A') (A') (A')
                 (A") (A") (A') (A') (A') (A") (A") (A') (A') (A")
                 (A') (A') (A") (A") (A") (A') (A') (A') (A") (A')
                 (A') (A") (A') (A") (A") (A') (A") (A') (A') (A")
                 (?A)
       Virtual   (?A) (A') (A") (A') (A") (A') (A') (A") (A') (A')
                 (A') (A") (A") (A') (A') (A') (A") (A") (A') (A')
                 (A") (A") (A') (A") (A') (A") (A') (A') (A') (A")
                 (A') (A") (A") (A') (A') (A") (A') (A") (A') (A")
                 (A') (A') (A") (A") (A') (A") (A') (A") (A') (A")
                 (A') (A') (A") (A') (A") (A') (A") (A') (A") (A')
                 (A') (A') (A") (A') (A') (A") (A") (A') (A') (A")
                 (A') (A") (A') (A") (A") (A") (A') (A") (A') (A')
                 (A") (A") (A') (A") (A') (A") (A') (A') (A') (A")
                 (A') (A") (A") (A') (A') (A') (A') (A") (A') (A")
                 (A") (A') (A") (A') (A") (A') (A") (A') (A") (A')
                 (A') (A') (A") (A') (A") (A') (A") (A') (A") (A')
                 (A') (A") (A') (A") (A") (A") (A') (A') (A") (A')
                 (A") (A') (A') (A") (A") (A') (A") (A') (A") (A")
                 (A') (A") (A') (A') (A') (A") (A') (A") (A") (A')
                 (A") (A") (A') (A') (A') (A") (A') (A') (A") (A")
                 (A") (A') (A') (A') (A") (A') (A') (A") (A') (A")
                 (A') (A") (A") (A') (A') (A") (A') (A') (A") (A")
                 (A") (A') (A") (A") (A') (A") (A') (A") (A') (A")
                 (A') (A') (A") (A') (A') (A") (A") (A') (A") (A')
                 (A') (A') (A") (A") (A') (A') (A") (A") (A') (A")
                 (A') (A") (A') (A") (A") (A') (A') (A") (A") (A')
                 (A') (A') (A") (A') (A") (A') (A') (A") (A") (A')
                 (A") (A') (A') (A") (A") (A") (A') (A') (A") (A')
                 (A') (A") (A") (A') (A") (A') (A") (A') (A") (A')
                 (A') (A") (A') (A') (A') (A') (A") (A") (A") (A')
                 (A') (A") (A') (A") (A') (A") (A') (A') (A') (A")
                 (A') (A') (A") (A') (A") (A') (A") (A') (A") (A')
                 (A") (A') (A") (A") (A') (A") (A') (A") (A') (A')
                 (A") (A') (A') (A") (A')
 <S**2> of initial guess= 1.0000
 Leave Link  401 at Fri Dec  1 15:05:45 2006, MaxMem=  268435456 cpu:       3.4
 (Enter /home/konrad/guests/guik/Gaussian/g03/l502.exe)
 UHF open shell SCF:
 Requested convergence on RMS density matrix=1.00D-08 within 128 cycles.
 Requested convergence on MAX density matrix=1.00D-06.
 Requested convergence on             energy=1.00D-06.
 No special actions if energy rises.
 Using DIIS extrapolation, IDIIS=  1040.
 Integral symmetry usage will be decided dynamically.
       655821 words used for storage of precomputed grid.
 IEnd=   1137240 IEndB=   1137240 NGot= 268435456 MDV= 267445539
 LenX= 267445539

 Density matrix breaks symmetry, PCut= 1.00D-04
 Density matrix has no symmetry -- integrals replicated.
 Cycle   1  Pass 1  IDiag  1:
 Integrals replicated using symmetry in FoFDir.
 MinBra= 0 MaxBra= 2 Meth= 1.
 IRaf=       0 NMat=   1 IRICut=       1 DoRegI=T DoRafI=F ISym2E= 2 JSym2E=2.
 E= -595.528497951092    
 DIIS: error= 2.44D-02 at cycle   1 NSaved=   1.
 NSaved= 1 IEnMin= 1 EnMin= -595.528497951092     IErMin= 1 ErrMin= 2.44D-02
 ErrMax= 2.44D-02 EMaxC= 1.00D-01 BMatC= 1.29D+00 BMatP= 1.29D+00
 IDIUse=3 WtCom= 7.56D-01 WtEn= 2.44D-01
 Coeff-Com:  0.100D+01
 Coeff-En:   0.100D+01
 Coeff:      0.100D+01
 Gap=    -0.013 Goal=   None    Shift=    0.000
 Gap=     0.027 Goal=   None    Shift=    0.000
 GapD=   -0.013 DampG=0.250 DampE=0.500 DampFc=0.2500 IDamp=-1.
 Damping current iteration by 2.50D-01
 RMSDP=6.90D-03 MaxDP=2.75D-01              OVMax= 5.41D-01

 Density matrix breaks symmetry, PCut= 1.00D-04
 Density matrix has no symmetry -- integrals replicated.
 Cycle   2  Pass 1  IDiag  1:
 E= -595.674344129748     Delta-E=       -0.145846178656 Rises=F Damp=T
 DIIS: error= 1.47D-02 at cycle   2 NSaved=   2.
 NSaved= 2 IEnMin= 2 EnMin= -595.674344129748     IErMin= 2 ErrMin= 1.47D-02
 ErrMax= 1.47D-02 EMaxC= 1.00D-01 BMatC= 3.19D-01 BMatP= 1.29D+00
 IDIUse=3 WtCom= 8.53D-01 WtEn= 1.47D-01
 Coeff-Com: -0.591D+00 0.159D+01
 Coeff-En:   0.000D+00 0.100D+01
 Coeff:     -0.504D+00 0.150D+01
 Gap=     0.187 Goal=   None    Shift=    0.000
 Gap=     0.029 Goal=   None    Shift=    0.000
 RMSDP=4.18D-03 MaxDP=1.75D-01 DE=-1.46D-01 OVMax= 6.16D-01

 Density matrix breaks symmetry, PCut= 1.00D-04
 Density matrix has no symmetry -- integrals replicated.
 Cycle   3  Pass 1  IDiag  1:
 E= -595.919542242274     Delta-E=       -0.245198112525 Rises=F Damp=F
 DIIS: error= 1.11D-02 at cycle   3 NSaved=   3.
 NSaved= 3 IEnMin= 3 EnMin= -595.919542242274     IErMin= 3 ErrMin= 1.11D-02
 ErrMax= 1.11D-02 EMaxC= 1.00D-01 BMatC= 1.82D-01 BMatP= 3.19D-01
 IDIUse=3 WtCom= 8.89D-01 WtEn= 1.11D-01
 Coeff-Com: -0.377D+00 0.883D+00 0.494D+00
 Coeff-En:   0.000D+00 0.000D+00 0.100D+01
 Coeff:     -0.336D+00 0.785D+00 0.550D+00
 Gap=     0.168 Goal=   None    Shift=    0.000
 Gap=     0.034 Goal=   None    Shift=    0.000
 RMSDP=1.05D-03 MaxDP=1.02D-01 DE=-2.45D-01 OVMax= 1.37D-01

 Density matrix breaks symmetry, PCut= 1.00D-04
 Density matrix has no symmetry -- integrals replicated.
 Cycle   4  Pass 1  IDiag  1:
 E= -595.960333122942     Delta-E=       -0.040790880669 Rises=F Damp=F
 DIIS: error= 4.89D-03 at cycle   4 NSaved=   4.
 NSaved= 4 IEnMin= 4 EnMin= -595.960333122942     IErMin= 4 ErrMin= 4.89D-03
 ErrMax= 4.89D-03 EMaxC= 1.00D-01 BMatC= 3.62D-02 BMatP= 1.82D-01
 IDIUse=3 WtCom= 9.51D-01 WtEn= 4.89D-02
 Coeff-Com: -0.339D-01 0.115D+00 0.310D+00 0.609D+00
 Coeff-En:   0.000D+00 0.000D+00 0.170D+00 0.830D+00
 Coeff:     -0.323D-01 0.109D+00 0.303D+00 0.620D+00
 Gap=     0.168 Goal=   None    Shift=    0.000
 Gap=     0.045 Goal=   None    Shift=    0.000
 RMSDP=5.02D-04 MaxDP=6.62D-02 DE=-4.08D-02 OVMax= 1.70D-01

 Density matrix breaks symmetry, PCut= 1.00D-04
 Density matrix has no symmetry -- integrals replicated.
 Cycle   5  Pass 1  IDiag  1:
 E= -595.972358951109     Delta-E=       -0.012025828167 Rises=F Damp=F
 DIIS: error= 1.66D-03 at cycle   5 NSaved=   5.
 NSaved= 5 IEnMin= 5 EnMin= -595.972358951109     IErMin= 5 ErrMin= 1.66D-03
 ErrMax= 1.66D-03 EMaxC= 1.00D-01 BMatC= 3.94D-03 BMatP= 3.62D-02
 IDIUse=3 WtCom= 9.83D-01 WtEn= 1.66D-02
 Coeff-Com: -0.268D-02 0.183D-01 0.127D+00 0.360D+00 0.498D+00
 Coeff-En:   0.000D+00 0.000D+00 0.000D+00 0.000D+00 0.100D+01
 Coeff:     -0.264D-02 0.180D-01 0.124D+00 0.354D+00 0.506D+00
 Gap=     0.173 Goal=   None    Shift=    0.000
 Gap=     0.052 Goal=   None    Shift=    0.000
 RMSDP=1.58D-04 MaxDP=1.19D-02 DE=-1.20D-02 OVMax= 5.47D-02

 Density matrix breaks symmetry, PCut= 1.00D-04
 Density matrix has no symmetry -- integrals replicated.
 Cycle   6  Pass 1  IDiag  1:
 E= -595.974322538968     Delta-E=       -0.001963587859 Rises=F Damp=F
 DIIS: error= 2.03D-03 at cycle   6 NSaved=   6.
 NSaved= 6 IEnMin= 6 EnMin= -595.974322538968     IErMin= 5 ErrMin= 1.66D-03
 ErrMax= 2.03D-03 EMaxC= 1.00D-01 BMatC= 7.01D-04 BMatP= 3.94D-03
 IDIUse=3 WtCom= 9.83D-01 WtEn= 1.66D-02
 Coeff-Com: -0.582D-02 0.700D-02-0.135D-01 0.385D-01 0.450D-01 0.929D+00
 Coeff-En:   0.000D+00 0.000D+00 0.000D+00 0.000D+00 0.000D+00 0.100D+01
 Coeff:     -0.572D-02 0.688D-02-0.132D-01 0.379D-01 0.443D-01 0.930D+00
 Gap=     0.177 Goal=   None    Shift=    0.000
 Gap=     0.057 Goal=   None    Shift=    0.000
 RMSDP=2.24D-04 MaxDP=1.72D-02 DE=-1.96D-03 OVMax= 9.88D-02

 Density matrix breaks symmetry, PCut= 1.00D-04
 Density matrix has no symmetry -- integrals replicated.
 Cycle   7  Pass 1  IDiag  1:
 E= -595.975918525801     Delta-E=       -0.001595986833 Rises=F Damp=F
 DIIS: error= 1.19D-03 at cycle   7 NSaved=   7.
 NSaved= 7 IEnMin= 7 EnMin= -595.975918525801     IErMin= 7 ErrMin= 1.19D-03
 ErrMax= 1.19D-03 EMaxC= 1.00D-01 BMatC= 7.66D-04 BMatP= 7.01D-04
 IDIUse=3 WtCom= 9.88D-01 WtEn= 1.19D-02
 Coeff-Com: -0.139D-01 0.252D-01-0.257D-01-0.549D-01-0.351D+00 0.540D+00
 Coeff-Com:  0.880D+00
 Coeff-En:   0.000D+00 0.000D+00 0.000D+00 0.000D+00 0.000D+00 0.000D+00
 Coeff-En:   0.100D+01
 Coeff:     -0.137D-01 0.249D-01-0.254D-01-0.543D-01-0.347D+00 0.534D+00
 Coeff:      0.882D+00
 Gap=     0.181 Goal=   None    Shift=    0.000
 Gap=     0.061 Goal=   None    Shift=    0.000
 RMSDP=1.96D-04 MaxDP=1.18D-02 DE=-1.60D-03 OVMax= 8.42D-02

 Density matrix breaks symmetry, PCut= 1.00D-04
 Density matrix has no symmetry -- integrals replicated.
 Cycle   8  Pass 1  IDiag  1:
 E= -595.977045198176     Delta-E=       -0.001126672375 Rises=F Damp=F
 DIIS: error= 1.07D-03 at cycle   8 NSaved=   8.
 NSaved= 8 IEnMin= 8 EnMin= -595.977045198176     IErMin= 8 ErrMin= 1.07D-03
 ErrMax= 1.07D-03 EMaxC= 1.00D-01 BMatC= 2.66D-04 BMatP= 7.01D-04
 IDIUse=3 WtCom= 9.89D-01 WtEn= 1.07D-02
 Coeff-Com: -0.575D-02 0.169D-01 0.111D-01-0.770D-02-0.331D+00-0.583D-01
 Coeff-Com:  0.481D+00 0.893D+00
 Coeff-En:   0.000D+00 0.000D+00 0.000D+00 0.000D+00 0.000D+00 0.000D+00
 Coeff-En:   0.000D+00 0.100D+01
 Coeff:     -0.569D-02 0.167D-01 0.110D-01-0.761D-02-0.327D+00-0.576D-01
 Coeff:      0.476D+00 0.894D+00
 Gap=     0.184 Goal=   None    Shift=    0.000
 Gap=     0.065 Goal=   None    Shift=    0.000
 RMSDP=1.65D-04 MaxDP=1.09D-02 DE=-1.13D-03 OVMax= 7.22D-02

 Density matrix breaks symmetry, PCut= 1.00D-04
 Density matrix has no symmetry -- integrals replicated.
 Cycle   9  Pass 1  IDiag  1:
 E= -595.977629284075     Delta-E=       -0.000584085900 Rises=F Damp=F
 DIIS: error= 4.45D-04 at cycle   9 NSaved=   9.
 NSaved= 9 IEnMin= 9 EnMin= -595.977629284075     IErMin= 9 ErrMin= 4.45D-04
 ErrMax= 4.45D-04 EMaxC= 1.00D-01 BMatC= 8.29D-05 BMatP= 2.66D-04
 IDIUse=3 WtCom= 9.96D-01 WtEn= 4.45D-03
 Coeff-Com:  0.749D-02-0.892D-02 0.264D-01 0.506D-01 0.514D-01-0.867D-01
 Coeff-Com: -0.356D+00 0.238D+00 0.108D+01
 Coeff-En:   0.000D+00 0.000D+00 0.000D+00 0.000D+00 0.000D+00 0.000D+00
 Coeff-En:   0.000D+00 0.000D+00 0.100D+01
 Coeff:      0.746D-02-0.888D-02 0.263D-01 0.503D-01 0.511D-01-0.863D-01
 Coeff:     -0.354D+00 0.237D+00 0.108D+01
 Gap=     0.185 Goal=   None    Shift=    0.000
 Gap=     0.064 Goal=   None    Shift=    0.000
 RMSDP=8.46D-05 MaxDP=6.42D-03 DE=-5.84D-04 OVMax= 3.68D-02

 Density matrix breaks symmetry, PCut= 1.00D-04
 Density matrix has no symmetry -- integrals replicated.
 Cycle  10  Pass 1  IDiag  1:
 E= -595.977809733877     Delta-E=       -0.000180449802 Rises=F Damp=F
 DIIS: error= 3.43D-04 at cycle  10 NSaved=  10.
 NSaved=10 IEnMin=10 EnMin= -595.977809733877     IErMin=10 ErrMin= 3.43D-04
 ErrMax= 3.43D-04 EMaxC= 1.00D-01 BMatC= 4.34D-05 BMatP= 8.29D-05
 IDIUse=3 WtCom= 9.97D-01 WtEn= 3.43D-03
 Coeff-Com:  0.537D-02-0.830D-02 0.145D-01 0.351D-01 0.115D+00-0.513D-02
 Coeff-Com: -0.408D+00-0.150D+00 0.629D+00 0.773D+00
 Coeff-En:   0.000D+00 0.000D+00 0.000D+00 0.000D+00 0.000D+00 0.000D+00
 Coeff-En:   0.000D+00 0.000D+00 0.000D+00 0.100D+01
 Coeff:      0.535D-02-0.827D-02 0.145D-01 0.350D-01 0.114D+00-0.512D-02
 Coeff:     -0.407D+00-0.149D+00 0.627D+00 0.773D+00
 Gap=     0.186 Goal=   None    Shift=    0.000
 Gap=     0.065 Goal=   None    Shift=    0.000
 RMSDP=6.22D-05 MaxDP=4.51D-03 DE=-1.80D-04 OVMax= 2.72D-02

 Density matrix breaks symmetry, PCut= 1.00D-04
 Density matrix has no symmetry -- integrals replicated.
 Cycle  11  Pass 1  IDiag  1:
 E= -595.977889488617     Delta-E=       -0.000079754739 Rises=F Damp=F
 DIIS: error= 1.41D-04 at cycle  11 NSaved=  11.
 NSaved=11 IEnMin=11 EnMin= -595.977889488617     IErMin=11 ErrMin= 1.41D-04
 ErrMax= 1.41D-04 EMaxC= 1.00D-01 BMatC= 1.16D-05 BMatP= 4.34D-05
 IDIUse=3 WtCom= 9.99D-01 WtEn= 1.41D-03
 Coeff-Com: -0.133D-03-0.704D-03-0.221D-03 0.683D-02 0.494D-01 0.562D-01
 Coeff-Com: -0.145D+00-0.193D+00-0.359D-01 0.359D+00 0.903D+00
 Coeff-En:   0.000D+00 0.000D+00 0.000D+00 0.000D+00 0.000D+00 0.000D+00
 Coeff-En:   0.000D+00 0.000D+00 0.000D+00 0.000D+00 0.100D+01
 Coeff:     -0.133D-03-0.703D-03-0.221D-03 0.682D-02 0.494D-01 0.561D-01
 Coeff:     -0.145D+00-0.193D+00-0.358D-01 0.359D+00 0.903D+00
 Gap=     0.186 Goal=   None    Shift=    0.000
 Gap=     0.065 Goal=   None    Shift=    0.000
 RMSDP=4.18D-05 MaxDP=3.03D-03 DE=-7.98D-05 OVMax= 1.81D-02

 Density matrix breaks symmetry, PCut= 1.00D-04
 Density matrix has no symmetry -- integrals replicated.
 Cycle  12  Pass 1  IDiag  1:
 E= -595.977916521208     Delta-E=       -0.000027032591 Rises=F Damp=F
 DIIS: error= 7.42D-05 at cycle  12 NSaved=  12.
 NSaved=12 IEnMin=12 EnMin= -595.977916521208     IErMin=12 ErrMin= 7.42D-05
 ErrMax= 7.42D-05 EMaxC= 1.00D-01 BMatC= 2.97D-06 BMatP= 1.16D-05
 IDIUse=1 WtCom= 1.00D+00 WtEn= 0.00D+00
 Coeff-Com: -0.103D-02 0.125D-02-0.326D-02-0.468D-02-0.987D-02 0.308D-01
 Coeff-Com:  0.213D-01-0.496D-01-0.143D+00-0.283D-01 0.411D+00 0.776D+00
 Coeff:     -0.103D-02 0.125D-02-0.326D-02-0.468D-02-0.987D-02 0.308D-01
 Coeff:      0.213D-01-0.496D-01-0.143D+00-0.283D-01 0.411D+00 0.776D+00
 Gap=     0.186 Goal=   None    Shift=    0.000
 Gap=     0.066 Goal=   None    Shift=    0.000
 RMSDP=1.71D-05 MaxDP=1.37D-03 DE=-2.70D-05 OVMax= 7.30D-03

 Density matrix breaks symmetry, PCut= 1.00D-04
 Density matrix has no symmetry -- integrals replicated.
 Cycle  13  Pass 1  IDiag  1:
 E= -595.977921653673     Delta-E=       -0.000005132465 Rises=F Damp=F
 DIIS: error= 3.36D-05 at cycle  13 NSaved=  13.
 NSaved=13 IEnMin=13 EnMin= -595.977921653673     IErMin=13 ErrMin= 3.36D-05
 ErrMax= 3.36D-05 EMaxC= 1.00D-01 BMatC= 1.24D-06 BMatP= 2.97D-06
 IDIUse=1 WtCom= 1.00D+00 WtEn= 0.00D+00
 Coeff-Com: -0.168D-03 0.555D-03-0.579D-03-0.320D-02-0.212D-01-0.129D-02
 Coeff-Com:  0.656D-01 0.463D-01-0.410D-01-0.173D+00-0.245D+00 0.453D+00
 Coeff-Com:  0.921D+00
 Coeff:     -0.168D-03 0.555D-03-0.579D-03-0.320D-02-0.212D-01-0.129D-02
 Coeff:      0.656D-01 0.463D-01-0.410D-01-0.173D+00-0.245D+00 0.453D+00
 Coeff:      0.921D+00
 Gap=     0.186 Goal=   None    Shift=    0.000
 Gap=     0.066 Goal=   None    Shift=    0.000
 RMSDP=9.13D-06 MaxDP=8.03D-04 DE=-5.13D-06 OVMax= 3.31D-03

 Density matrix breaks symmetry, PCut= 1.00D-04
 Density matrix has no symmetry -- integrals replicated.
 Cycle  14  Pass 1  IDiag  1:
 E= -595.977923440493     Delta-E=       -0.000001786820 Rises=F Damp=F
 DIIS: error= 1.61D-05 at cycle  14 NSaved=  14.
 NSaved=14 IEnMin=14 EnMin= -595.977923440493     IErMin=14 ErrMin= 1.61D-05
 ErrMax= 1.61D-05 EMaxC= 1.00D-01 BMatC= 2.71D-07 BMatP= 1.24D-06
 IDIUse=1 WtCom= 1.00D+00 WtEn= 0.00D+00
 Coeff-Com:  0.105D-03 0.126D-03 0.438D-03-0.895D-03-0.114D-01-0.716D-02
 Coeff-Com:  0.303D-01 0.389D-01 0.276D-02-0.886D-01-0.215D+00 0.763D-01
 Coeff-Com:  0.433D+00 0.741D+00
 Coeff:      0.105D-03 0.126D-03 0.438D-03-0.895D-03-0.114D-01-0.716D-02
 Coeff:      0.303D-01 0.389D-01 0.276D-02-0.886D-01-0.215D+00 0.763D-01
 Coeff:      0.433D+00 0.741D+00
 Gap=     0.186 Goal=   None    Shift=    0.000
 Gap=     0.066 Goal=   None    Shift=    0.000
 RMSDP=4.48D-06 MaxDP=3.43D-04 DE=-1.79D-06 OVMax= 1.70D-03

 Density matrix breaks symmetry, PCut= 1.00D-04
 Density matrix has no symmetry -- integrals replicated.
 Cycle  15  Pass 1  IDiag  1:
 E= -595.977923753807     Delta-E=       -0.000000313314 Rises=F Damp=F
 DIIS: error= 8.96D-06 at cycle  15 NSaved=  15.
 NSaved=15 IEnMin=15 EnMin= -595.977923753807     IErMin=15 ErrMin= 8.96D-06
 ErrMax= 8.96D-06 EMaxC= 1.00D-01 BMatC= 9.72D-08 BMatP= 2.71D-07
 IDIUse=1 WtCom= 1.00D+00 WtEn= 0.00D+00
 Coeff-Com:  0.166D-03-0.223D-03 0.450D-03 0.728D-03 0.615D-03-0.174D-02
 Coeff-Com: -0.700D-02 0.908D-02 0.186D-01 0.806D-02-0.532D-01-0.111D+00
 Coeff-Com: -0.466D-01 0.463D+00 0.720D+00
 Coeff:      0.166D-03-0.223D-03 0.450D-03 0.728D-03 0.615D-03-0.174D-02
 Coeff:     -0.700D-02 0.908D-02 0.186D-01 0.806D-02-0.532D-01-0.111D+00
 Coeff:     -0.466D-01 0.463D+00 0.720D+00
 Gap=     0.186 Goal=   None    Shift=    0.000
 Gap=     0.065 Goal=   None    Shift=    0.000
 RMSDP=1.49D-06 MaxDP=1.61D-04 DE=-3.13D-07 OVMax= 3.77D-04

 Density matrix breaks symmetry, PCut= 1.00D-04
 Density matrix has no symmetry -- integrals replicated.
 Cycle  16  Pass 1  IDiag  1:
 E= -595.977923832695     Delta-E=       -0.000000078888 Rises=F Damp=F
 DIIS: error= 6.42D-06 at cycle  16 NSaved=  16.
 NSaved=16 IEnMin=16 EnMin= -595.977923832695     IErMin=16 ErrMin= 6.42D-06
 ErrMax= 6.42D-06 EMaxC= 1.00D-01 BMatC= 4.33D-08 BMatP= 9.72D-08
 IDIUse=1 WtCom= 1.00D+00 WtEn= 0.00D+00
 Coeff-Com:  0.863D-04-0.129D-03 0.281D-03 0.604D-03 0.135D-02-0.783D-03
 Coeff-Com: -0.817D-02 0.440D-02 0.101D-01 0.122D-01-0.147D-01-0.755D-01
 Coeff-Com: -0.667D-01 0.249D+00 0.499D+00 0.390D+00
 Coeff:      0.863D-04-0.129D-03 0.281D-03 0.604D-03 0.135D-02-0.783D-03
 Coeff:     -0.817D-02 0.440D-02 0.101D-01 0.122D-01-0.147D-01-0.755D-01
 Coeff:     -0.667D-01 0.249D+00 0.499D+00 0.390D+00
 Gap=     0.186 Goal=   None    Shift=    0.000
 Gap=     0.066 Goal=   None    Shift=    0.000
 RMSDP=4.18D-07 MaxDP=3.12D-05 DE=-7.89D-08 OVMax= 1.27D-04

 Cycle  17  Pass 1  IDiag  1:
 E= -595.977908856384     Delta-E=        0.000014976311 Rises=F Damp=F
 DIIS: error= 2.36D-06 at cycle  17 NSaved=  17.
 NSaved=17 IEnMin=16 EnMin= -595.977923832695     IErMin=17 ErrMin= 2.36D-06
 ErrMax= 2.36D-06 EMaxC= 1.00D-01 BMatC= 3.25D-09 BMatP= 4.33D-08
 IDIUse=1 WtCom= 1.00D+00 WtEn= 0.00D+00
 Coeff-Com: -0.161D-04 0.109D-04 0.372D-04 0.237D-03 0.756D-03 0.368D-03
 Coeff-Com: -0.319D-02-0.438D-03 0.217D-02 0.514D-02 0.141D-01-0.175D-01
 Coeff-Com: -0.419D-01-0.119D-03 0.780D-01 0.199D-01 0.942D+00
 Coeff:     -0.161D-04 0.109D-04 0.372D-04 0.237D-03 0.756D-03 0.368D-03
 Coeff:     -0.319D-02-0.438D-03 0.217D-02 0.514D-02 0.141D-01-0.175D-01
 Coeff:     -0.419D-01-0.119D-03 0.780D-01 0.199D-01 0.942D+00
 Gap=     0.186 Goal=   None    Shift=    0.000
 Gap=     0.065 Goal=   None    Shift=    0.000
 RMSDP=5.53D-07 MaxDP=6.42D-05 DE= 1.50D-05 OVMax= 1.35D-04

 Cycle  18  Pass 1  IDiag  1:
 E= -595.977922940698     Delta-E=       -0.000014084314 Rises=F Damp=F
 DIIS: error= 1.68D-06 at cycle  18 NSaved=  18.
 NSaved=18 IEnMin=16 EnMin= -595.977923832695     IErMin=18 ErrMin= 1.68D-06
 ErrMax= 1.68D-06 EMaxC= 1.00D-01 BMatC= 1.61D-09 BMatP= 3.25D-09
 IDIUse=1 WtCom= 1.00D+00 WtEn= 0.00D+00
 Coeff-Com: -0.458D-05-0.296D-05 0.784D-05 0.125D-03 0.535D-03-0.187D-04
 Coeff-Com: -0.179D-02-0.902D-03 0.119D-02 0.248D-02 0.769D-02-0.500D-02
 Coeff-Com: -0.111D-01-0.159D-01 0.117D-01-0.263D-01 0.380D+00 0.657D+00
 Coeff:     -0.458D-05-0.296D-05 0.784D-05 0.125D-03 0.535D-03-0.187D-04
 Coeff:     -0.179D-02-0.902D-03 0.119D-02 0.248D-02 0.769D-02-0.500D-02
 Coeff:     -0.111D-01-0.159D-01 0.117D-01-0.263D-01 0.380D+00 0.657D+00
 Gap=     0.186 Goal=   None    Shift=    0.000
 Gap=     0.066 Goal=   None    Shift=    0.000
 RMSDP=3.08D-07 MaxDP=1.76D-05 DE=-1.41D-05 OVMax= 1.31D-04

 Cycle  19  Pass 1  IDiag  1:
 E= -595.977926414131     Delta-E=       -0.000003473432 Rises=F Damp=F
 DIIS: error= 4.41D-07 at cycle  19 NSaved=  19.
 NSaved=19 IEnMin=19 EnMin= -595.977926414131     IErMin=19 ErrMin= 4.41D-07
 ErrMax= 4.41D-07 EMaxC= 1.00D-01 BMatC= 2.38D-10 BMatP= 1.61D-09
 IDIUse=1 WtCom= 1.00D+00 WtEn= 0.00D+00
 Coeff-Com: -0.528D-05 0.745D-05-0.130D-04-0.120D-04 0.851D-04-0.167D-03
 Coeff-Com: -0.132D-03-0.389D-03-0.407D-03 0.123D-03 0.204D-02 0.338D-02
 Coeff-Com:  0.337D-02-0.151D-01-0.153D-01-0.978D-03 0.438D-01 0.221D+00
 Coeff-Com:  0.759D+00
 Coeff:     -0.528D-05 0.745D-05-0.130D-04-0.120D-04 0.851D-04-0.167D-03
 Coeff:     -0.132D-03-0.389D-03-0.407D-03 0.123D-03 0.204D-02 0.338D-02
 Coeff:      0.337D-02-0.151D-01-0.153D-01-0.978D-03 0.438D-01 0.221D+00
 Coeff:      0.759D+00
 Gap=     0.186 Goal=   None    Shift=    0.000
 Gap=     0.066 Goal=   None    Shift=    0.000
 RMSDP=1.36D-07 MaxDP=9.72D-06 DE=-3.47D-06 OVMax= 5.19D-05

 Cycle  20  Pass 1  IDiag  1:
 Restarting incremental Fock formation.
 E= -595.977925473722     Delta-E=        0.000000940408 Rises=F Damp=F
 DIIS: error= 2.80D-07 at cycle  20 NSaved=  20.
 NSaved=20 IEnMin=19 EnMin= -595.977926414131     IErMin=20 ErrMin= 2.80D-07
 ErrMax= 2.80D-07 EMaxC= 1.00D-01 BMatC= 8.81D-11 BMatP= 2.38D-10
 IDIUse=1 WtCom= 1.00D+00 WtEn= 0.00D+00
 Coeff-Com:  0.483D-06-0.131D-05-0.321D-05-0.924D-05 0.319D-04 0.298D-04
 Coeff-Com:  0.459D-04-0.159D-03-0.205D-03 0.145D-03 0.647D-03 0.110D-02
 Coeff-Com: -0.224D-02-0.949D-03-0.553D-03 0.189D-03 0.539D-01-0.125D-01
 Coeff-Com:  0.159D+00 0.801D+00
 Coeff:      0.483D-06-0.131D-05-0.321D-05-0.924D-05 0.319D-04 0.298D-04
 Coeff:      0.459D-04-0.159D-03-0.205D-03 0.145D-03 0.647D-03 0.110D-02
 Coeff:     -0.224D-02-0.949D-03-0.553D-03 0.189D-03 0.539D-01-0.125D-01
 Coeff:      0.159D+00 0.801D+00
 Gap=     0.186 Goal=   None    Shift=    0.000
 Gap=     0.066 Goal=   None    Shift=    0.000
 RMSDP=1.22D-07 MaxDP=7.23D-06 DE= 9.40D-07 OVMax= 5.45D-05

 Cycle  21  Pass 1  IDiag  1:
 E= -595.977923870056     Delta-E=        0.000001603666 Rises=F Damp=F
 DIIS: error= 1.97D-07 at cycle  21 NSaved=  20.
 NSaved=20 IEnMin=18 EnMin= -595.977926414131     IErMin=20 ErrMin= 1.97D-07
 ErrMax= 1.97D-07 EMaxC= 1.00D-01 BMatC= 9.31D-12 BMatP= 8.81D-11
 IDIUse=1 WtCom= 1.00D+00 WtEn= 0.00D+00
 Coeff-Com:  0.579D-07-0.268D-05-0.111D-04-0.209D-04 0.515D-04 0.101D-03
 Coeff-Com: -0.741D-04-0.167D-03-0.293D-04 0.142D-03 0.850D-03-0.430D-03
 Coeff-Com: -0.554D-03-0.191D-02 0.889D-03-0.242D-02-0.339D-01-0.548D-01
 Coeff-Com:  0.315D+00 0.777D+00
 Coeff:      0.579D-07-0.268D-05-0.111D-04-0.209D-04 0.515D-04 0.101D-03
 Coeff:     -0.741D-04-0.167D-03-0.293D-04 0.142D-03 0.850D-03-0.430D-03
 Coeff:     -0.554D-03-0.191D-02 0.889D-03-0.242D-02-0.339D-01-0.548D-01
 Coeff:      0.315D+00 0.777D+00
 Gap=     0.186 Goal=   None    Shift=    0.000
 Gap=     0.066 Goal=   None    Shift=    0.000
 RMSDP=1.02D-08 MaxDP=9.63D-07 DE= 1.60D-06 OVMax= 2.41D-06

 Cycle  22  Pass 1  IDiag  1:
 E= -595.977923502963     Delta-E=        0.000000367093 Rises=F Damp=F
 DIIS: error= 7.36D-08 at cycle  22 NSaved=  20.
 NSaved=20 IEnMin=17 EnMin= -595.977926414131     IErMin=20 ErrMin= 7.36D-08
 ErrMax= 7.36D-08 EMaxC= 1.00D-01 BMatC= 2.35D-12 BMatP= 9.31D-12
 IDIUse=1 WtCom= 1.00D+00 WtEn= 0.00D+00
 Coeff-Com: -0.178D-05-0.776D-05-0.145D-04 0.259D-04 0.736D-04-0.356D-04
 Coeff-Com: -0.105D-03-0.360D-04 0.519D-04 0.479D-03-0.137D-03-0.268D-03
 Coeff-Com: -0.155D-02 0.326D-03-0.611D-02-0.271D-01-0.138D-01 0.186D+00
 Coeff-Com:  0.279D+00 0.583D+00
 Coeff:     -0.178D-05-0.776D-05-0.145D-04 0.259D-04 0.736D-04-0.356D-04
 Coeff:     -0.105D-03-0.360D-04 0.519D-04 0.479D-03-0.137D-03-0.268D-03
 Coeff:     -0.155D-02 0.326D-03-0.611D-02-0.271D-01-0.138D-01 0.186D+00
 Coeff:      0.279D+00 0.583D+00
 Gap=     0.186 Goal=   None    Shift=    0.000
 Gap=     0.066 Goal=   None    Shift=    0.000
 RMSDP=6.52D-09 MaxDP=5.59D-07 DE= 3.67D-07 OVMax= 2.44D-06

 Cycle  23  Pass 1  IDiag  1:
 E= -595.977923792475     Delta-E=       -0.000000289512 Rises=F Damp=F
 DIIS: error= 5.03D-08 at cycle  23 NSaved=  20.
 NSaved=20 IEnMin=16 EnMin= -595.977926414131     IErMin=20 ErrMin= 5.03D-08
 ErrMax= 5.03D-08 EMaxC= 1.00D-01 BMatC= 7.75D-13 BMatP= 2.35D-12
 IDIUse=1 WtCom= 1.00D+00 WtEn= 0.00D+00
 Coeff-Com: -0.115D-05-0.206D-05 0.687D-05 0.168D-04 0.294D-05-0.114D-04
 Coeff-Com: -0.124D-04-0.487D-04 0.319D-04 0.172D-04 0.421D-04-0.863D-04
 Coeff-Com:  0.294D-03-0.396D-02-0.110D-01 0.254D-01 0.390D-01-0.207D+00
 Coeff-Com:  0.533D-01 0.110D+01
 Coeff:     -0.115D-05-0.206D-05 0.687D-05 0.168D-04 0.294D-05-0.114D-04
 Coeff:     -0.124D-04-0.487D-04 0.319D-04 0.172D-04 0.421D-04-0.863D-04
 Coeff:      0.294D-03-0.396D-02-0.110D-01 0.254D-01 0.390D-01-0.207D+00
 Coeff:      0.533D-01 0.110D+01
 Gap=     0.186 Goal=   None    Shift=    0.000
 Gap=     0.066 Goal=   None    Shift=    0.000
 RMSDP=4.96D-09 MaxDP=4.78D-07 DE=-2.90D-07 OVMax= 1.08D-06

 Error on total polarization charges =  0.01839
 SCF Done:  E(UB+HF-LYP) =  -595.977923792     A.U. after   23 cycles
             Convg  =    0.4956D-08             -V/T =  2.0079
             S**2   =   0.7709
 KE= 5.913084864818D+02 PE=-3.210029992136D+03 EE= 1.099684182247D+03
 --------------------------------------------------------------------
 Variational PCM results
 =======================
 <psi(f)|   H    |psi(f)>                     (a.u.) =    -595.914827
 <psi(f)|H+V(f)/2|psi(f)>                     (a.u.) =    -595.977924
 Total free energy in solution:
  with all non electrostatic terms            (a.u.) =    -595.967412
 --------------------------------------------------------------------
 (Polarized solute)-Solvent               (kcal/mol) =     -39.59
 --------------------------------------------------------------------
 Cavitation energy                        (kcal/mol) =      24.47
 Dispersion energy                        (kcal/mol) =     -19.10
 Repulsion energy                         (kcal/mol) =       1.23
 Total non electrostatic                  (kcal/mol) =       6.60
 --------------------------------------------------------------------
 Partition over spheres:
 Sphere  on Atom  Surface  Charge   GEl     GCav    GDR
    1      C1      14.19  -0.055   -2.61    2.16   -1.72
    2      C2       1.53  -0.003   -0.13    0.43   -0.21
    3      C3       0.83  -0.003   -0.15    0.41   -0.24
    4      C4      10.51  -0.047   -2.32    1.80   -1.19
    5      C5      16.96  -0.062   -2.76    2.01   -1.72
    6      C6      16.91  -0.069   -3.00    2.01   -1.70
    7      C11      1.53  -0.003   -0.13    0.43   -0.21
    8      C12      0.83  -0.003   -0.15    0.41   -0.24
    9      C13     14.19  -0.055   -2.61    2.16   -1.72
   10      C14     10.51  -0.047   -2.32    1.80   -1.19
   11      C15     16.91  -0.069   -3.00    2.01   -1.70
   12      C17     16.96  -0.062   -2.76    2.01   -1.72
   13      N21      0.12  -0.001   -0.06    0.11   -0.01
   14      C22     14.14  -0.082   -3.77    1.99   -1.47
   15      C25     44.19  -0.106   -3.94    4.75   -2.81
 Added spheres:    65.15  -0.218   -9.88    0.00    0.00
 --------------------------------------------------------------------
 After PCM corrections, the SCF energy is  -595.977923792     a.u.
 --------------------------------------------------------------------
 Annihilation of the first spin contaminant:
 S**2 before annihilation     0.7709,   after     0.7504
 Leave Link  502 at Fri Dec  1 15:24:44 2006, MaxMem=  268435456 cpu:    1132.1
 (Enter /home/konrad/guests/guik/Gaussian/g03/l601.exe)
 Copying SCF densities to generalized density rwf, ISCF=1 IROHF=0.

 **********************************************************************

            Population analysis using the SCF density.

 **********************************************************************

 Orbital symmetries:
 Alpha Orbitals:
       Occupied  (A') (?A) (?A) (A') (A') (A") (?A) (?A) (?A) (?A)
                 (?A) (?A) (?A) (?A) (A') (A') (A') (A") (A') (A')
                 (A") (A") (A') (A') (A') (A") (A") (A') (A") (A')
                 (A') (A') (A") (A') (A") (A') (A") (A") (A') (A')
                 (A') (A") (A") (A') (A") (A") (A') (A') (A') (A")
                 (A") (A')
       Virtual   (A') (A") (A') (A") (A') (A') (A") (A') (A') (A")
                 (A') (A') (A") (A") (A') (A') (A") (A') (A') (A")
                 (A") (A') (A") (A') (A') (A') (A") (A') (A") (A')
                 (A") (A') (A") (A') (A") (A') (A') (A") (A") (A')
                 (A') (A") (A") (A') (A") (A') (A') (A') (A") (A')
                 (A") (A') (A") (A') (A") (A') (A") (A') (A") (A')
                 (A') (A") (A') (A") (A') (A") (A") (A') (A") (A')
                 (A") (A') (A") (A') (A") (A') (A') (A") (A') (A")
                 (A") (A') (A") (A') (A') (A') (A") (A') (A") (A')
                 (A") (A') (A") (A') (A') (A') (A") (A") (A') (A")
                 (A') (A") (A') (A") (A') (A') (A") (A") (A') (A")
                 (A') (A') (A') (A") (A') (A") (A') (A") (A") (A')
                 (A") (A') (A') (A") (A') (A') (A") (A") (A') (A")
                 (A') (A') (A") (A") (A') (A") (A') (A") (A") (A')
                 (A') (A") (A') (A') (A") (A') (A') (A") (A") (A")
                 (A") (A') (A') (A') (A") (A') (A') (A") (A") (A')
                 (A") (A') (A") (A') (A") (A') (A') (A') (A") (A")
                 (A') (A") (A') (A') (A") (A') (A") (A') (A") (A")
                 (A') (A") (A') (A") (A") (A') (A") (A') (A") (A')
                 (A') (A') (A") (A') (A") (A") (A') (A") (A') (A')
                 (A") (A') (A") (A') (A') (A") (A") (A') (A") (A')
                 (A") (A") (A') (A") (A') (A") (A') (A") (A') (A')
                 (A') (A") (A') (A") (A') (A") (A') (A') (A") (A")
                 (A') (A') (A") (A") (A") (A') (A') (A") (A") (A')
                 (A') (A") (A') (A") (A') (A") (A') (A") (A') (A')
                 (A") (A') (A') (A') (A') (A") (A") (A") (A') (A')
                 (A") (A') (A") (A') (A") (A') (A') (A') (A") (A')
                 (A') (A") (A") (A') (A') (A") (A') (A") (A') (A")
                 (A") (A') (A") (A') (A") (A') (A") (A') (A') (A")
                 (A') (A') (A") (A')
 Beta  Orbitals:
       Occupied  (A') (A") (A') (A') (A') (A") (?A) (?A) (?A) (?A)
                 (?A) (?A) (?A) (?A) (A') (A') (A') (A") (A') (A')
                 (A") (A") (A') (A') (A') (A") (A") (A') (A") (A')
                 (A') (A') (A") (A") (A') (A') (A") (A") (A') (A')
                 (A') (A") (A') (A") (A") (A") (A') (A') (A') (A")
                 (A")
       Virtual   (A') (A') (A") (A') (A") (A') (A') (A") (A') (A')
                 (A") (A') (A') (A") (A") (A') (A") (A') (A') (A')
                 (A") (A") (A') (A") (A') (A') (A') (A") (A') (A")
                 (A") (A') (A') (A") (A') (A") (A') (A') (A") (A")
                 (A') (A') (A") (A") (A') (A") (A') (A') (A') (A")
                 (A') (A") (A') (A") (A') (A") (A') (A") (A') (A")
                 (A') (A') (A") (A') (A") (A') (A") (A") (A') (A")
                 (A') (A") (A') (A") (A') (A") (A') (A') (A") (A')
                 (A") (A") (A') (A") (A') (A') (A") (A') (A') (A")
                 (A') (A") (A') (A") (A') (A') (A") (A') (A") (A')
                 (A") (A') (A") (A') (A') (A") (A') (A") (A") (A')
                 (A") (A') (A') (A') (A") (A') (A') (A") (A") (A")
                 (A') (A') (A") (A') (A") (A') (A') (A") (A") (A')
                 (A") (A') (A') (A") (A") (A') (A") (A') (A") (A")
                 (A') (A') (A") (A') (A') (A") (A') (A") (A") (A')
                 (A") (A") (A') (A') (A') (A") (A') (A') (A") (A")
                 (A') (A") (A') (A") (A') (A") (A') (A') (A') (A")
                 (A") (A') (A") (A') (A') (A") (A') (A") (A') (A")
                 (A") (A') (A") (A') (A") (A") (A') (A") (A') (A")
                 (A') (A') (A') (A") (A') (A") (A") (A') (A") (A')
                 (A') (A") (A') (A") (A') (A') (A") (A") (A') (A")
                 (A') (A") (A") (A') (A") (A') (A") (A') (A") (A')
                 (A') (A') (A") (A') (A") (A') (A") (A') (A') (A")
                 (A") (A') (A') (A") (A") (A") (A') (A') (A") (A")
                 (A') (A') (A") (A') (A") (A') (A") (A') (A") (A')
                 (A') (A") (A') (A') (A') (A') (A") (A") (A") (A')
                 (A") (A') (A') (A") (A') (A") (A') (A') (A') (A")
                 (A') (A') (A") (A") (A') (A') (A") (A') (A") (A')
                 (A") (A') (A") (A") (A') (A") (A') (A") (A') (A')
                 (A") (A') (A') (A") (A')
 Unable to determine electronic state:  an orbital has unidentified symmetry.
 Alpha  occ. eigenvalues --  -14.47642 -10.29029 -10.29029 -10.27633 -10.25919
 Alpha  occ. eigenvalues --  -10.25884 -10.25739 -10.25739 -10.24986 -10.24986
 Alpha  occ. eigenvalues --  -10.24845 -10.24845 -10.24030 -10.24030 -10.21801
 Alpha  occ. eigenvalues --   -1.06797  -0.91180  -0.90499  -0.84864  -0.81306
 Alpha  occ. eigenvalues --   -0.81014  -0.77495  -0.76886  -0.70714  -0.67263
 Alpha  occ. eigenvalues --   -0.67026  -0.62985  -0.62608  -0.57456  -0.57207
 Alpha  occ. eigenvalues --   -0.54837  -0.52141  -0.50778  -0.50310  -0.49928
 Alpha  occ. eigenvalues --   -0.48468  -0.47888  -0.46771  -0.46597  -0.43952
 Alpha  occ. eigenvalues --   -0.42404  -0.41431  -0.41226  -0.40995  -0.39694
 Alpha  occ. eigenvalues --   -0.39171  -0.38490  -0.38045  -0.33859  -0.31224
 Alpha  occ. eigenvalues --   -0.27218  -0.27150
 Alpha virt. eigenvalues --   -0.08510  -0.05991  -0.04021  -0.01888  -0.00639
 Alpha virt. eigenvalues --    0.01268   0.01524   0.02462   0.03444   0.03605
 Alpha virt. eigenvalues --    0.03892   0.05681   0.05992   0.07413   0.08262
 Alpha virt. eigenvalues --    0.09222   0.09566   0.09879   0.11242   0.12663
 Alpha virt. eigenvalues --    0.12915   0.13838   0.14207   0.14622   0.16461
 Alpha virt. eigenvalues --    0.17412   0.18205   0.18784   0.19334   0.20105
 Alpha virt. eigenvalues --    0.20242   0.20940   0.21750   0.23415   0.23875
 Alpha virt. eigenvalues --    0.24274   0.24670   0.25031   0.26398   0.26800
 Alpha virt. eigenvalues --    0.27443   0.27485   0.27833   0.28246   0.28998
 Alpha virt. eigenvalues --    0.29427   0.30424   0.31035   0.31647   0.31832
 Alpha virt. eigenvalues --    0.33544   0.33602   0.33818   0.35387   0.35881
 Alpha virt. eigenvalues --    0.37393   0.37620   0.39912   0.40030   0.40284
 Alpha virt. eigenvalues --    0.40870   0.41211   0.42317   0.42839   0.43316
 Alpha virt. eigenvalues --    0.43436   0.43978   0.44223   0.44916   0.45884
 Alpha virt. eigenvalues --    0.46787   0.46864   0.48421   0.48686   0.50937
 Alpha virt. eigenvalues --    0.51203   0.51988   0.53354   0.56145   0.56363
 Alpha virt. eigenvalues --    0.58508   0.60270   0.60665   0.62645   0.63062
 Alpha virt. eigenvalues --    0.63993   0.64303   0.65948   0.67194   0.69012
 Alpha virt. eigenvalues --    0.70378   0.72789   0.73283   0.77977   0.79311
 Alpha virt. eigenvalues --    0.79860   0.79868   0.80648   0.81895   0.82655
 Alpha virt. eigenvalues --    0.85074   0.85997   0.86942   0.87658   0.87766
 Alpha virt. eigenvalues --    0.88516   0.90729   0.90870   0.91915   0.93011
 Alpha virt. eigenvalues --    0.93268   0.93852   0.94478   0.94881   0.95042
 Alpha virt. eigenvalues --    0.96257   0.96388   0.96548   0.99239   1.00092
 Alpha virt. eigenvalues --    1.00621   1.00652   1.00707   1.01932   1.02418
 Alpha virt. eigenvalues --    1.04415   1.04763   1.06475   1.08384   1.11570
 Alpha virt. eigenvalues --    1.11756   1.14736   1.15861   1.19337   1.24648
 Alpha virt. eigenvalues --    1.26426   1.26442   1.27047   1.28019   1.29230
 Alpha virt. eigenvalues --    1.32883   1.33144   1.37487   1.38081   1.38704
 Alpha virt. eigenvalues --    1.39986   1.40824   1.40840   1.40980   1.42991
 Alpha virt. eigenvalues --    1.43750   1.45425   1.47850   1.49682   1.49933
 Alpha virt. eigenvalues --    1.50771   1.52024   1.52189   1.53416   1.54793
 Alpha virt. eigenvalues --    1.56454   1.57226   1.57758   1.58477   1.60753
 Alpha virt. eigenvalues --    1.61153   1.61593   1.62093   1.64034   1.64182
 Alpha virt. eigenvalues --    1.64822   1.65682   1.66633   1.67021   1.68002
 Alpha virt. eigenvalues --    1.69339   1.69603   1.70591   1.73630   1.74326
 Alpha virt. eigenvalues --    1.74587   1.75761   1.77876   1.78509   1.79433
 Alpha virt. eigenvalues --    1.80638   1.82296   1.83767   1.86703   1.87857
 Alpha virt. eigenvalues --    1.91093   1.94424   1.95557   1.96356   1.98761
 Alpha virt. eigenvalues --    1.99776   2.01789   2.02999   2.04401   2.06604
 Alpha virt. eigenvalues --    2.08737   2.10430   2.12232   2.13920   2.16456
 Alpha virt. eigenvalues --    2.20666   2.23396   2.24098   2.25086   2.26070
 Alpha virt. eigenvalues --    2.29230   2.35172   2.35925   2.40355   2.40478
 Alpha virt. eigenvalues --    2.41134   2.41578   2.43631   2.43883   2.46072
 Alpha virt. eigenvalues --    2.46532   2.48290   2.49561   2.50069   2.53367
 Alpha virt. eigenvalues --    2.57643   2.57950   2.59676   2.61472   2.67584
 Alpha virt. eigenvalues --    2.69228   2.71490   2.73367   2.89176   2.95896
 Alpha virt. eigenvalues --    2.98932   3.27255   3.42924   4.98097   4.98336
 Alpha virt. eigenvalues --    5.00950   5.06050   5.06422   5.07185   5.13209
 Alpha virt. eigenvalues --    5.14014   5.19623   5.20101   5.21485   5.27714
 Alpha virt. eigenvalues --    5.29420   5.32330   5.39966   5.40144   5.43744
 Alpha virt. eigenvalues --    5.45097   5.47081   5.53753   5.57578   5.66119
 Alpha virt. eigenvalues --    5.66271   5.72680   5.73642   6.04780   6.21130
 Alpha virt. eigenvalues --    7.33087  29.61293  29.77190  29.78080  29.82120
 Alpha virt. eigenvalues --   29.90313  29.96713  29.99712  30.01104  30.06942
 Alpha virt. eigenvalues --   30.07338  30.10888  30.18250  30.35705  30.47852
 Alpha virt. eigenvalues --   36.60258  36.60284  36.65726  36.67315  36.70154
 Alpha virt. eigenvalues --   36.72398  36.74567  36.77648  36.80507  36.81043
 Alpha virt. eigenvalues --   36.92109  36.98493  37.01112  41.26982
  Beta  occ. eigenvalues --  -14.46797 -10.29128 -10.29127 -10.27662 -10.25813
  Beta  occ. eigenvalues --  -10.25778 -10.25477 -10.25477 -10.24859 -10.24859
  Beta  occ. eigenvalues --  -10.24699 -10.24699 -10.24142 -10.24142 -10.21748
  Beta  occ. eigenvalues --   -1.05600  -0.90675  -0.90169  -0.84542  -0.81046
  Beta  occ. eigenvalues --   -0.80556  -0.77438  -0.76152  -0.70459  -0.67105
  Beta  occ. eigenvalues --   -0.66600  -0.62730  -0.62354  -0.57255  -0.56888
  Beta  occ. eigenvalues --   -0.54427  -0.50985  -0.50624  -0.49821  -0.49466
  Beta  occ. eigenvalues --   -0.48239  -0.47728  -0.46643  -0.46512  -0.43398
  Beta  occ. eigenvalues --   -0.42226  -0.41253  -0.40821  -0.40426  -0.39553
  Beta  occ. eigenvalues --   -0.39075  -0.38351  -0.35996  -0.32982  -0.29435
  Beta  occ. eigenvalues --   -0.27150
  Beta virt. eigenvalues --   -0.20600  -0.07831  -0.04933  -0.02562  -0.01018
  Beta virt. eigenvalues --   -0.00534   0.01329   0.01563   0.02506   0.03476
  Beta virt. eigenvalues --    0.03658   0.03918   0.05754   0.05989   0.07527
  Beta virt. eigenvalues --    0.08368   0.09590   0.10102   0.10264   0.11424
  Beta virt. eigenvalues --    0.12718   0.13529   0.13976   0.14305   0.14748
  Beta virt. eigenvalues --    0.16588   0.17520   0.18319   0.18975   0.19404
  Beta virt. eigenvalues --    0.20326   0.20334   0.21154   0.21876   0.23524
  Beta virt. eigenvalues --    0.24112   0.24380   0.24760   0.25086   0.26701
  Beta virt. eigenvalues --    0.26942   0.27602   0.27614   0.28114   0.28528
  Beta virt. eigenvalues --    0.29275   0.29559   0.30575   0.31231   0.31762
  Beta virt. eigenvalues --    0.31938   0.33661   0.33712   0.34139   0.35967
  Beta virt. eigenvalues --    0.36009   0.37658   0.37784   0.40075   0.40130
  Beta virt. eigenvalues --    0.40474   0.41136   0.41410   0.42462   0.43009
  Beta virt. eigenvalues --    0.43488   0.43662   0.44152   0.44401   0.45173
  Beta virt. eigenvalues --    0.46049   0.46831   0.47127   0.48619   0.48878
  Beta virt. eigenvalues --    0.51005   0.51320   0.52151   0.53437   0.56387
  Beta virt. eigenvalues --    0.56440   0.58629   0.60509   0.60783   0.63182
  Beta virt. eigenvalues --    0.63413   0.64522   0.65020   0.66173   0.67200
  Beta virt. eigenvalues --    0.69118   0.70501   0.72924   0.73412   0.78205
  Beta virt. eigenvalues --    0.79392   0.79928   0.79973   0.80786   0.82140
  Beta virt. eigenvalues --    0.82723   0.85189   0.86107   0.87182   0.87991
  Beta virt. eigenvalues --    0.87992   0.88777   0.90906   0.91256   0.92125
  Beta virt. eigenvalues --    0.93210   0.93506   0.94139   0.94693   0.94984
  Beta virt. eigenvalues --    0.95267   0.96503   0.96576   0.96749   0.99355
  Beta virt. eigenvalues --    1.00572   1.00813   1.00951   1.01072   1.02286
  Beta virt. eigenvalues --    1.02631   1.04490   1.05056   1.06661   1.08644
  Beta virt. eigenvalues --    1.11657   1.11953   1.15053   1.15943   1.19449
  Beta virt. eigenvalues --    1.24884   1.26601   1.26640   1.27339   1.28251
  Beta virt. eigenvalues --    1.29522   1.33139   1.33310   1.37764   1.38209
  Beta virt. eigenvalues --    1.38793   1.40353   1.41028   1.41102   1.41179
  Beta virt. eigenvalues --    1.43157   1.44017   1.45695   1.48029   1.49832
  Beta virt. eigenvalues --    1.50008   1.50894   1.52206   1.52211   1.53630
  Beta virt. eigenvalues --    1.55126   1.56622   1.57483   1.58027   1.58897
  Beta virt. eigenvalues --    1.60845   1.61304   1.61758   1.62299   1.64091
  Beta virt. eigenvalues --    1.64272   1.65047   1.65834   1.66951   1.67227
  Beta virt. eigenvalues --    1.68086   1.69747   1.69921   1.70899   1.74038
  Beta virt. eigenvalues --    1.74418   1.74666   1.76018   1.78094   1.78901
  Beta virt. eigenvalues --    1.79810   1.80798   1.82633   1.84106   1.86860
  Beta virt. eigenvalues --    1.88077   1.91361   1.94670   1.95735   1.96623
  Beta virt. eigenvalues --    1.99032   1.99901   2.01988   2.03246   2.04744
  Beta virt. eigenvalues --    2.06902   2.09503   2.10849   2.12225   2.14276
  Beta virt. eigenvalues --    2.16636   2.20835   2.23508   2.24215   2.25583
  Beta virt. eigenvalues --    2.26212   2.29378   2.35772   2.36336   2.40488
  Beta virt. eigenvalues --    2.40590   2.41217   2.41691   2.43793   2.44658
  Beta virt. eigenvalues --    2.46233   2.46732   2.48383   2.49680   2.50179
  Beta virt. eigenvalues --    2.54136   2.57924   2.59053   2.59852   2.61586
  Beta virt. eigenvalues --    2.67716   2.69319   2.71653   2.73451   2.89308
  Beta virt. eigenvalues --    2.96114   2.99212   3.27426   3.43079   4.98175
  Beta virt. eigenvalues --    4.98370   5.01136   5.06124   5.06408   5.07205
  Beta virt. eigenvalues --    5.13211   5.14004   5.19638   5.20121   5.21525
  Beta virt. eigenvalues --    5.27883   5.29515   5.32572   5.39976   5.40194
  Beta virt. eigenvalues --    5.43783   5.45114   5.47340   5.53843   5.57700
  Beta virt. eigenvalues --    5.66398   5.66405   5.72734   5.73956   6.05013
  Beta virt. eigenvalues --    6.21319   7.34933  29.61421  29.77205  29.78203
  Beta virt. eigenvalues --   29.82304  29.90313  29.96976  29.99674  30.01195
  Beta virt. eigenvalues --   30.07084  30.07406  30.10915  30.18394  30.35824
  Beta virt. eigenvalues --   30.47962  36.60316  36.60390  36.65813  36.67181
  Beta virt. eigenvalues --   36.70085  36.72370  36.74434  36.77512  36.80712
  Beta virt. eigenvalues --   36.80940  36.92164  36.98389  37.01020  41.28045
          Condensed to atoms (all electrons):
              1          2          3          4          5          6
     1  C    5.208451   0.248911  -0.012921   0.034392  -0.012603   0.465789
     2  C    0.248911   5.439973  -0.064918  -0.083107  -0.043236   0.112228
     3  C   -0.012921  -0.064918   5.676666   0.301311   0.025647  -0.088658
     4  C    0.034392  -0.083107   0.301311   5.130184   0.504853   0.024129
     5  C   -0.012603  -0.043236   0.025647   0.504853   4.831525   0.514511
     6  C    0.465789   0.112228  -0.088658   0.024129   0.514511   4.750178
     7  H    0.422255  -0.090566   0.003971   0.007010  -0.005909  -0.039273
     8  H    0.009509  -0.014902  -0.049082   0.391140  -0.029571  -0.005807
     9  H   -0.003779   0.003089  -0.007724  -0.058303   0.417979  -0.037017
    10  H   -0.055448  -0.010110   0.001954   0.001185  -0.040742   0.410347
    11  C    0.052157  -0.069488   0.248468  -0.007634   0.007677  -0.058180
    12  C   -0.049991   0.248468  -0.125683  -0.023866   0.008808   0.018416
    13  C   -0.030525   0.052157  -0.049991  -0.002786  -0.002745   0.004898
    14  C   -0.002786  -0.007634  -0.023866  -0.006840  -0.000967   0.000784
    15  C    0.004898  -0.058180   0.018416   0.000784  -0.000346  -0.000623
    16  H    0.002871   0.008404  -0.003913   0.000156  -0.000087   0.000680
    17  C   -0.002745   0.007677   0.008808  -0.000967   0.000490  -0.000346
    18  H   -0.000060   0.003714  -0.003723   0.000076  -0.000030   0.000027
    19  H    0.000089   0.000481  -0.000376   0.000020  -0.000007   0.000008
    20  H   -0.000062   0.001390  -0.000404  -0.000005   0.000000   0.000001
    21  N    0.011171  -0.022756   0.226892  -0.032387  -0.041755   0.014521
    22  C    0.002189   0.030392  -0.070747   0.009193  -0.000828  -0.001675
    23  H    0.000360  -0.007116  -0.003011   0.009276   0.001476  -0.000136
    24  H    0.000083   0.001448   0.007364  -0.001142   0.000070  -0.000038
    25  C   -0.000174  -0.004491   0.009300   0.000418  -0.000387   0.000439
    26  H   -0.000013   0.000254  -0.001454  -0.000161  -0.000003   0.000003
    27  H    0.000066  -0.000956   0.001728  -0.000401   0.000057  -0.000027
    28  H   -0.000006   0.000322   0.002735   0.002725  -0.000281  -0.000010
              7          8          9         10         11         12
     1  C    0.422255   0.009509  -0.003779  -0.055448   0.052157  -0.049991
     2  C   -0.090566  -0.014902   0.003089  -0.010110  -0.069488   0.248468
     3  C    0.003971  -0.049082  -0.007724   0.001954   0.248468  -0.125683
     4  C    0.007010   0.391140  -0.058303   0.001185  -0.007634  -0.023866
     5  C   -0.005909  -0.029571   0.417979  -0.040742   0.007677   0.008808
     6  C   -0.039273  -0.005807  -0.037017   0.410347  -0.058180   0.018416
     7  H    0.527157   0.000017  -0.000148  -0.004805   0.008404  -0.003913
     8  H    0.000017   0.523797  -0.005332  -0.000134   0.003714  -0.003723
     9  H   -0.000148  -0.005332   0.534005  -0.004889   0.001390  -0.000404
    10  H   -0.004805  -0.000134  -0.004889   0.537796   0.000481  -0.000376
    11  C    0.008404   0.003714   0.001390   0.000481   5.439973  -0.064918
    12  C   -0.003913  -0.003723  -0.000404  -0.000376  -0.064918   5.676666
    13  C    0.002871  -0.000060  -0.000062   0.000089   0.248911  -0.012921
    14  C    0.000156   0.000076  -0.000005   0.000020  -0.083107   0.301311
    15  C    0.000680   0.000027   0.000001   0.000008   0.112228  -0.088658
    16  H    0.000062   0.000000   0.000000   0.000001  -0.090566   0.003971
    17  C   -0.000087  -0.000030   0.000000  -0.000007  -0.043236   0.025647
    18  H    0.000000   0.000000   0.000000   0.000000  -0.014902  -0.049082
    19  H    0.000001   0.000000   0.000000   0.000000  -0.010110   0.001954
    20  H    0.000000   0.000000   0.000000   0.000000   0.003089  -0.007724
    21  N    0.000388   0.001689  -0.000042   0.000703  -0.022756   0.226892
    22  C   -0.000004   0.008629   0.000127  -0.000052   0.030392  -0.070747
    23  H    0.000000   0.001009   0.000001   0.000000   0.001448   0.007364
    24  H    0.000000   0.000029   0.000000   0.000000  -0.007116  -0.003011
    25  C    0.000000  -0.002011  -0.000030   0.000006  -0.004491   0.009300
    26  H    0.000000   0.000031   0.000000   0.000000   0.000254  -0.001454
    27  H    0.000000   0.000006   0.000000   0.000000   0.000322   0.002735
    28  H    0.000000   0.000116   0.000000   0.000000  -0.000956   0.001728
             13         14         15         16         17         18
     1  C   -0.030525  -0.002786   0.004898   0.002871  -0.002745  -0.000060
     2  C    0.052157  -0.007634  -0.058180   0.008404   0.007677   0.003714
     3  C   -0.049991  -0.023866   0.018416  -0.003913   0.008808  -0.003723
     4  C   -0.002786  -0.006840   0.000784   0.000156  -0.000967   0.000076
     5  C   -0.002745  -0.000967  -0.000346  -0.000087   0.000490  -0.000030
     6  C    0.004898   0.000784  -0.000623   0.000680  -0.000346   0.000027
     7  H    0.002871   0.000156   0.000680   0.000062  -0.000087   0.000000
     8  H   -0.000060   0.000076   0.000027   0.000000  -0.000030   0.000000
     9  H   -0.000062  -0.000005   0.000001   0.000000   0.000000   0.000000
    10  H    0.000089   0.000020   0.000008   0.000001  -0.000007   0.000000
    11  C    0.248911  -0.083107   0.112228  -0.090566  -0.043236  -0.014902
    12  C   -0.012921   0.301311  -0.088658   0.003971   0.025647  -0.049082
    13  C    5.208451   0.034392   0.465789   0.422255  -0.012603   0.009509
    14  C    0.034392   5.130184   0.024129   0.007010   0.504853   0.391140
    15  C    0.465789   0.024129   4.750178  -0.039273   0.514511  -0.005807
    16  H    0.422255   0.007010  -0.039273   0.527157  -0.005909   0.000017
    17  C   -0.012603   0.504853   0.514511  -0.005909   4.831525  -0.029571
[...]
    19  H   -0.011358   0.000072  -0.000016   0.000001   0.000000   0.000000
    20  H    0.000072   0.002611   0.000014   0.000001   0.000000   0.000000
    21  N   -0.000016   0.000014   0.476122  -0.013700  -0.004185  -0.004185
    22  C    0.000001   0.000001  -0.013700  -0.022729   0.003992   0.003992
    23  H    0.000000   0.000000  -0.004185   0.003992   0.007207   0.001122
    24  H    0.000000   0.000000  -0.004185   0.003992   0.001122   0.007207
    25  C    0.000000   0.000000  -0.003335   0.005136  -0.002939  -0.002939
    26  H    0.000000   0.000000   0.000057   0.000683   0.000331   0.000331
    27  H    0.000000   0.000000  -0.000271   0.000397  -0.000029  -0.000091
    28  H    0.000000   0.000000  -0.000271   0.000397  -0.000091  -0.000029
             25         26         27         28
     1  C    0.000016   0.000000  -0.000001  -0.000001
     2  C    0.000046   0.000000   0.000012   0.000004
     3  C   -0.000133  -0.000007  -0.000012  -0.000008
     4  C    0.000219  -0.000032   0.000026   0.000136
     5  C   -0.000014   0.000000  -0.000001   0.000001
     6  C   -0.000008   0.000000   0.000000   0.000000
     7  H    0.000000   0.000000   0.000000   0.000000
     8  H    0.000047   0.000001   0.000000  -0.000017
     9  H    0.000000   0.000000   0.000000   0.000000
    10  H    0.000000   0.000000   0.000000   0.000000
    11  C    0.000046   0.000000   0.000004   0.000012
    12  C   -0.000133  -0.000007  -0.000008  -0.000012
    13  C    0.000016   0.000000  -0.000001  -0.000001
    14  C    0.000219  -0.000032   0.000136   0.000026
    15  C   -0.000008   0.000000   0.000000   0.000000
    16  H    0.000000   0.000000   0.000000   0.000000
    17  C   -0.000014   0.000000   0.000001  -0.000001
    18  H    0.000047   0.000001  -0.000017   0.000000
    19  H    0.000000   0.000000   0.000000   0.000000
    20  H    0.000000   0.000000   0.000000   0.000000
    21  N   -0.003335   0.000057  -0.000271  -0.000271
    22  C    0.005136   0.000683   0.000397   0.000397
    23  H   -0.002939   0.000331  -0.000029  -0.000091
    24  H   -0.002939   0.000331  -0.000091  -0.000029
    25  C    0.030205  -0.001191  -0.000105  -0.000105
    26  H   -0.001191   0.002410  -0.000187  -0.000187
    27  H   -0.000105  -0.000187  -0.001016   0.000033
    28  H   -0.000105  -0.000187   0.000033  -0.001016
 Mulliken atomic spin densities:
              1
     1  C    0.002702
     2  C    0.066563
     3  C   -0.046905
     4  C    0.183387
     5  C   -0.080771
     6  C    0.201921
     7  H   -0.000168
     8  H   -0.009068
     9  H    0.003345
    10  H   -0.010119
    11  C    0.066563
    12  C   -0.046905
    13  C    0.002702
    14  C    0.183387
    15  C    0.201921
    16  H   -0.000168
    17  C   -0.080771
    18  H   -0.009068
    19  H   -0.010119
    20  H    0.003345
    21  N    0.356589
    22  C   -0.016736
    23  H    0.006692
    24  H    0.006692
    25  C    0.025073
    26  H    0.002170
    27  H   -0.001129
    28  H   -0.001129
 Sum of Mulliken spin densities=   1.00000
 Electronic spatial extent (au):  <R**2>=  2980.0300
 Charge=     1.0000 electrons
 Dipole moment (field-independent basis, Debye):
    X=    -1.2593    Y=    -0.4296    Z=     0.0000  Tot=     1.3306
 Quadrupole moment (field-independent basis, Debye-Ang):
   XX=   -53.5504   YY=   -88.2625   ZZ=   -47.5888
   XY=     4.0609   XZ=     0.0000   YZ=     0.0000
 Traceless Quadrupole moment (field-independent basis, Debye-Ang):
   XX=     9.5835   YY=   -25.1286   ZZ=    15.5451
   XY=     4.0609   XZ=     0.0000   YZ=     0.0000
 Octapole moment (field-independent basis, Debye-Ang**2):
  XXX=    -7.7724  YYY=    -0.6433  ZZZ=     0.0000  XYY=   -10.3004
  XXY=     2.7571  XXZ=     0.0000  XZZ=    20.2357  YZZ=    -1.3732
  YYZ=     0.0000  XYZ=     0.0000
 Hexadecapole moment (field-independent basis, Debye-Ang**3):
 XXXX= -1228.0645 YYYY=  -169.0811 ZZZZ= -1755.8651 XXXY=    29.1894
 XXXZ=     0.0000 YYYX=     1.4566 YYYZ=     0.0000 ZZZX=     0.0000
 ZZZY=     0.0000 XXYY=  -280.5791 XXZZ=  -513.5714 YYZZ=  -460.8515
 XXYZ=     0.0000 YYXZ=     0.0000 ZZXY=    24.7269
 N-N= 9.230593996137D+02 E-N=-3.210029992218D+03  KE= 5.913084864819D+02
                          Isotropic Fermi Contact Couplings
        Atom                 a.u.       MegaHertz       Gauss      10(-4) cm-1
     1  C(13)             -0.00654      -7.34791      -2.62192      -2.45100
     2  C(13)              0.00317       3.56016       1.27035       1.18754
     3  C(13)             -0.01960     -22.03568      -7.86288      -7.35031
     4  C(13)              0.01389      15.61668       5.57242       5.20916
     5  C(13)             -0.01343     -15.09732      -5.38710      -5.03592
     6  C(13)              0.01383      15.55303       5.54971       5.18793
     7  H(1)              -0.00010      -0.42496      -0.15164      -0.14175
     8  H(1)              -0.00292     -13.03077      -4.64970      -4.34660
     9  H(1)               0.00096       4.26994       1.52362       1.42430
    10  H(1)              -0.00310     -13.84710      -4.94099      -4.61890
    11  C(13)              0.00317       3.56016       1.27035       1.18754
    12  C(13)             -0.01960     -22.03568      -7.86288      -7.35031
    13  C(13)             -0.00654      -7.34791      -2.62192      -2.45100
    14  C(13)              0.01389      15.61668       5.57242       5.20916
    15  C(13)              0.01383      15.55303       5.54971       5.18793
    16  H(1)              -0.00010      -0.42496      -0.15164      -0.14175
    17  C(13)             -0.01343     -15.09732      -5.38710      -5.03592
    18  H(1)              -0.00292     -13.03077      -4.64970      -4.34660
    19  H(1)              -0.00310     -13.84710      -4.94099      -4.61890
    20  H(1)               0.00096       4.26994       1.52362       1.42430
    21  N(14)              0.06171      19.93782       7.11431       6.65054
    22  C(13)             -0.01027     -11.54022      -4.11784      -3.84940
    23  H(1)               0.00350      15.65749       5.58698       5.22278
    24  H(1)               0.00350      15.65749       5.58698       5.22278
    25  C(13)              0.01445      16.24237       5.79568       5.41787
    26  H(1)               0.00089       3.96047       1.41319       1.32107
    27  H(1)              -0.00046      -2.05309      -0.73259      -0.68484
    28  H(1)              -0.00046      -2.05309      -0.73259      -0.68484
 --------------------------------------------------------
       Center         ----  Spin Dipole Couplings  ----
                      3XX-RR        3YY-RR        3ZZ-RR
 --------------------------------------------------------
     1   Atom       -0.006290      0.005616      0.000674
     2   Atom       -0.040750      0.082496     -0.041747
     3   Atom        0.015778     -0.051191      0.035412
     4   Atom       -0.095425      0.198125     -0.102700
     5   Atom        0.039196     -0.074159      0.034963
     6   Atom       -0.105574      0.215430     -0.109856
     7   Atom        0.002120     -0.003231      0.001111
     8   Atom        0.010147     -0.002778     -0.007369
     9   Atom        0.003429     -0.003153     -0.000276
    10   Atom       -0.001030     -0.001863      0.002893
    11   Atom       -0.040750      0.082496     -0.041747
    12   Atom        0.015778     -0.051191      0.035412
    13   Atom       -0.006290      0.005616      0.000674
    14   Atom       -0.095425      0.198125     -0.102700
    15   Atom       -0.105574      0.215430     -0.109856
    16   Atom        0.002120     -0.003231      0.001111
    17   Atom        0.039196     -0.074159      0.034963
    18   Atom        0.010147     -0.002778     -0.007369
    19   Atom       -0.001030     -0.001863      0.002893
    20   Atom        0.003429     -0.003153     -0.000276
    21   Atom       -0.443563      0.911237     -0.467675
    22   Atom        0.005204      0.006019     -0.011223
    23   Atom        0.005164     -0.004175     -0.000989
    24   Atom        0.005164     -0.004175     -0.000989
    25   Atom        0.004510      0.015615     -0.020125
    26   Atom        0.004981     -0.001704     -0.003277
    27   Atom        0.000768      0.000157     -0.000926
    28   Atom        0.000768      0.000157     -0.000926
 --------------------------------------------------------
                        XY            XZ            YZ
 --------------------------------------------------------
     1   Atom       -0.002102     -0.000654      0.000122
     2   Atom       -0.019563     -0.002547     -0.000405
     3   Atom        0.010830     -0.006863     -0.001975
     4   Atom       -0.049023      0.001667      0.000550
     5   Atom        0.017220     -0.002352     -0.000532
     6   Atom       -0.046838     -0.003507     -0.000107
     7   Atom        0.000833      0.002681      0.000412
     8   Atom        0.002589      0.009092      0.001435
     9   Atom        0.000985     -0.001322     -0.000206
    10   Atom        0.000116     -0.015783     -0.002247
    11   Atom       -0.019563      0.002547      0.000405
    12   Atom        0.010830      0.006863      0.001975
    13   Atom       -0.002102      0.000654     -0.000122
    14   Atom       -0.049023     -0.001667     -0.000550
    15   Atom       -0.046838      0.003507      0.000107
    16   Atom        0.000833     -0.002681     -0.000412
    17   Atom        0.017220      0.002352      0.000532
    18   Atom        0.002589     -0.009092     -0.001435
    19   Atom        0.000116      0.015783      0.002247
    20   Atom        0.000985      0.001322      0.000206
    21   Atom       -0.188805      0.000000      0.000000
    22   Atom       -0.003723      0.000000      0.000000
    23   Atom        0.004183      0.003769      0.001426
    24   Atom        0.004183     -0.003769     -0.001426
    25   Atom       -0.029333      0.000000      0.000000
    26   Atom       -0.000347      0.000000      0.000000
    27   Atom       -0.003829     -0.000482      0.003077
    28   Atom       -0.003829      0.000482     -0.003077
 --------------------------------------------------------


 ---------------------------------------------------------------------------------
              Anisotropic Spin Dipole Couplings in Principal Axis System
 ---------------------------------------------------------------------------------

       Atom             a.u.   MegaHertz   Gauss  10(-4) cm-1        Axes

              Baa    -0.0067    -0.900    -0.321    -0.300  0.9824  0.1668  0.0844
     1 C(13)  Bbb     0.0007     0.096     0.034     0.032 -0.0758 -0.0574  0.9955
              Bcc     0.0060     0.803     0.287     0.268 -0.1709  0.9843  0.0437
 
              Baa    -0.0455    -6.110    -2.180    -2.038  0.8169  0.1266  0.5626
     2 C(13)  Bbb    -0.0400    -5.366    -1.915    -1.790 -0.5560 -0.0861  0.8267
              Bcc     0.0855    11.477     4.095     3.828 -0.1531  0.9882 -0.0001
 
              Baa    -0.0529    -7.100    -2.533    -2.368 -0.1548  0.9879  0.0101
     3 C(13)  Bbb     0.0150     2.016     0.719     0.672  0.9337  0.1429  0.3282
              Bcc     0.0379     5.084     1.814     1.696 -0.3228 -0.0602  0.9446
 
              Baa    -0.1048   -14.065    -5.019    -4.692  0.7634  0.1247 -0.6338
     4 C(13)  Bbb    -0.1013   -13.591    -4.850    -4.533  0.6257  0.1010  0.7735
              Bcc     0.2061    27.656     9.868     9.225 -0.1605  0.9870  0.0009
 
              Baa    -0.0767   -10.295    -3.673    -3.434 -0.1469  0.9891  0.0016
     5 C(13)  Bbb     0.0342     4.589     1.637     1.531  0.3002  0.0430  0.9529
              Bcc     0.0425     5.706     2.036     1.903  0.9425  0.1405 -0.3032
 
              Baa    -0.1148   -15.399    -5.495    -5.136  0.8064  0.1146  0.5802
     6 C(13)  Bbb    -0.1074   -14.408    -5.141    -4.806 -0.5742 -0.0830  0.8145
              Bcc     0.2221    29.807    10.636     9.943 -0.1415  0.9899  0.0012
 
              Baa    -0.0034    -1.791    -0.639    -0.598 -0.1497  0.9887 -0.0013
     7 H(1)   Bbb    -0.0011    -0.583    -0.208    -0.194 -0.6236 -0.0934  0.7762
              Bcc     0.0044     2.374     0.847     0.792  0.7673  0.1170  0.6305
 
              Baa    -0.0112    -6.001    -2.141    -2.002 -0.3870 -0.0378  0.9213
     8 H(1)   Bbb    -0.0033    -1.744    -0.622    -0.582 -0.1693  0.9851 -0.0307
              Bcc     0.0145     7.744     2.763     2.583  0.9064  0.1679  0.3876
 
              Baa    -0.0033    -1.759    -0.628    -0.587 -0.1441  0.9896  0.0045
     9 H(1)   Bbb    -0.0007    -0.371    -0.132    -0.124  0.2966  0.0388  0.9542
              Bcc     0.0040     2.130     0.760     0.711  0.9441  0.1388 -0.2991
 
              Baa    -0.0151    -8.068    -2.879    -2.691  0.7414  0.1058  0.6627
    10 H(1)   Bbb    -0.0019    -1.002    -0.358    -0.334 -0.1410  0.9900 -0.0003
              Bcc     0.0170     9.071     3.237     3.026 -0.6561 -0.0933  0.7489
 
              Baa    -0.0455    -6.110    -2.180    -2.038  0.8169  0.1266 -0.5626
    11 C(13)  Bbb    -0.0400    -5.366    -1.915    -1.790  0.5560  0.0861  0.8267
              Bcc     0.0855    11.477     4.095     3.828 -0.1531  0.9882  0.0001
 
              Baa    -0.0529    -7.100    -2.533    -2.368 -0.1548  0.9879 -0.0101
    12 C(13)  Bbb     0.0150     2.016     0.719     0.672  0.9337  0.1429 -0.3282
              Bcc     0.0379     5.084     1.814     1.696  0.3228  0.0602  0.9446
 
              Baa    -0.0067    -0.900    -0.321    -0.300  0.9824  0.1668 -0.0844
    13 C(13)  Bbb     0.0007     0.096     0.034     0.032  0.0758  0.0574  0.9955
              Bcc     0.0060     0.803     0.287     0.268 -0.1709  0.9843 -0.0437
 
              Baa    -0.1048   -14.065    -5.019    -4.692  0.7634  0.1247  0.6338
    14 C(13)  Bbb    -0.1013   -13.591    -4.850    -4.533 -0.6257 -0.1010  0.7735
              Bcc     0.2061    27.656     9.868     9.225 -0.1605  0.9870 -0.0009
 
              Baa    -0.1148   -15.399    -5.495    -5.136  0.8064  0.1146 -0.5802
    15 C(13)  Bbb    -0.1074   -14.408    -5.141    -4.806  0.5742  0.0830  0.8145
              Bcc     0.2221    29.807    10.636     9.943 -0.1415  0.9899 -0.0012
 
              Baa    -0.0034    -1.791    -0.639    -0.598 -0.1497  0.9887  0.0013
    16 H(1)   Bbb    -0.0011    -0.583    -0.208    -0.194  0.6236  0.0934  0.7762
              Bcc     0.0044     2.374     0.847     0.792  0.7673  0.1170 -0.6305
 
              Baa    -0.0767   -10.295    -3.673    -3.434 -0.1469  0.9891 -0.0016
    17 C(13)  Bbb     0.0342     4.589     1.637     1.531 -0.3002 -0.0430  0.9529
              Bcc     0.0425     5.706     2.036     1.903  0.9425  0.1405  0.3032
 
              Baa    -0.0112    -6.001    -2.141    -2.002  0.3870  0.0378  0.9213
    18 H(1)   Bbb    -0.0033    -1.744    -0.622    -0.582 -0.1693  0.9851  0.0307
              Bcc     0.0145     7.744     2.763     2.583  0.9064  0.1679 -0.3876
 
              Baa    -0.0151    -8.068    -2.879    -2.691  0.7414  0.1058 -0.6627
    19 H(1)   Bbb    -0.0019    -1.002    -0.358    -0.334 -0.1410  0.9900  0.0003
              Bcc     0.0170     9.071     3.237     3.026  0.6561  0.0933  0.7489
 
              Baa    -0.0033    -1.759    -0.628    -0.587 -0.1441  0.9896 -0.0045
    20 H(1)   Bbb    -0.0007    -0.371    -0.132    -0.124 -0.2966 -0.0388  0.9542
              Bcc     0.0040     2.130     0.760     0.711  0.9441  0.1388  0.2991
 
              Baa    -0.4694   -18.103    -6.460    -6.039  0.9908  0.1355  0.0000
    21 N(14)  Bbb    -0.4677   -18.037    -6.436    -6.017  0.0000  0.0000  1.0000
              Bcc     0.9371    36.140    12.896    12.055 -0.1355  0.9908  0.0000
 
              Baa    -0.0112    -1.506    -0.537    -0.502  0.0000  0.0000  1.0000
    22 C(13)  Bbb     0.0019     0.250     0.089     0.084  0.7446  0.6676  0.0000
              Bcc     0.0094     1.256     0.448     0.419 -0.6676  0.7446  0.0000
 
              Baa    -0.0058    -3.081    -1.099    -1.028 -0.3584  0.9336  0.0040
    23 H(1)   Bbb    -0.0027    -1.443    -0.515    -0.481 -0.3643 -0.1438  0.9201
              Bcc     0.0085     4.524     1.614     1.509  0.8596  0.3283  0.3916
 
              Baa    -0.0058    -3.081    -1.099    -1.028 -0.3584  0.9336 -0.0040
    24 H(1)   Bbb    -0.0027    -1.443    -0.515    -0.481  0.3643  0.1438  0.9201
              Bcc     0.0085     4.524     1.614     1.509  0.8596  0.3283 -0.3916
 
              Baa    -0.0201    -2.701    -0.964    -0.901  0.0000  0.0000  1.0000
    25 C(13)  Bbb    -0.0198    -2.656    -0.948    -0.886  0.7701  0.6380  0.0000
              Bcc     0.0399     5.356     1.911     1.787 -0.6380  0.7701  0.0000
 
              Baa    -0.0033    -1.749    -0.624    -0.583  0.0000  0.0000  1.0000
    26 H(1)   Bbb    -0.0017    -0.919    -0.328    -0.306  0.0517  0.9987  0.0000
              Bcc     0.0050     2.667     0.952     0.890  0.9987 -0.0517  0.0000
 
              Baa    -0.0046    -2.463    -0.879    -0.821  0.4581  0.7112 -0.5332
    27 H(1)   Bbb    -0.0007    -0.380    -0.136    -0.127  0.6399  0.1525  0.7532
              Bcc     0.0053     2.843     1.014     0.948 -0.6170  0.6862  0.3852
 
              Baa    -0.0046    -2.463    -0.879    -0.821  0.4581  0.7112  0.5332
    28 H(1)   Bbb    -0.0007    -0.380    -0.136    -0.127 -0.6399 -0.1525  0.7532
              Bcc     0.0053     2.843     1.014     0.948 -0.6170  0.6862 -0.3852
 

 ---------------------------------------------------------------------------------

 No NMR shielding tensors so no spin-rotation constants.
 Leave Link  601 at Fri Dec  1 15:24:49 2006, MaxMem=  268435456 cpu:       0.9
 (Enter /home/konrad/guests/guik/Gaussian/g03/l9999.exe)
 1\1\GINC-COMP01\SP\UB3LYP\EPR-II\C14H13N1(1+,2)\GUIK\01-Dec-2006\0\\#p
  ub3lyp/EPR-II guess=mix geom=connectivity scf=(tight,novaracc,noincfo
 ck) integral=(grid=ultrafine) scrf=(pcm,solvent=thf)\\Ethylcarbazole c
 ation hyperfine couplings.\\1,2\C\C,1,1.37965154\C,2,1.42212692,1,119.
 36537202\C,3,1.40067709,2,122.40685452,1,-0.15242712,0\C,4,1.39277693,
 3,117.30824266,2,0.04709608,0\C,5,1.39836931,4,120.80473714,3,0.081611
 06,0\H,1,1.08305971,2,121.38406318,3,-179.91686087,0\H,4,1.08225516,3,
 121.91901104,2,-179.87266179,0\H,5,1.08242382,4,119.51539346,3,-179.99
 624817,0\H,6,1.08321173,5,119.37013184,4,179.87309363,0\C,2,1.462362,1
 ,134.34151946,6,-179.93736085,0\C,11,1.42212692,2,106.29308736,1,-179.
 94451858,0\C,11,1.37965154,2,134.34151946,1,0.,0\C,12,1.40067709,11,12
 2.40685452,2,-179.89310253,0\C,13,1.41061273,11,118.57984055,2,179.937
 36085,0\H,13,1.08305971,11,121.38406318,2,-0.02203458,0\C,14,1.3927769
 3,12,117.30824266,11,-0.04709608,0\H,14,1.08225516,12,121.91901104,11,
 179.87266179,0\H,15,1.08321173,13,119.09513077,11,179.98003097,0\H,17,
 1.08242382,14,119.51539346,12,179.99624817,0\N,12,1.3831755,11,108.912
 88254,2,0.24751467,0\C,21,1.46651007,12,125.18122409,11,-177.91738675,
 0\H,22,1.09036764,21,107.30839573,12,-148.90024283,0\H,22,1.09036764,2
 1,107.30839573,12,-33.97567724,0\C,22,1.53257656,21,112.24151509,12,88
 .56203997,0\H,25,1.09161007,22,108.86842703,21,180.,0\H,25,1.09156119,
 22,111.23804497,21,-60.62080361,0\H,25,1.09156119,22,111.23804497,21,6
 0.62080361,0\\Version=AM64L-G03RevD.02\HF=-595.9779238\S2=0.770941\S2-
 1=0.\S2A=0.750375\RMSD=4.956e-09\Thermal=0.\Dipole=0.3599646,0.0941319
 ,0.3682322\PG=CS [SG(C2H1N1),X(C12H12)]\\@


 I do not feel obliged to believe that the same God who
 has endowed us with sense, reason, and intellect has
 intended us to forgo their use.
                   --Galileo Galilei
 Job cpu time:  0 days  0 hours 19 minutes 39.6 seconds.
 File lengths (MBytes):  RWF=    213 Int=      0 D2E=      0 Chk=     24 Scr=      1
 Normal termination of Gaussian 03 at Fri Dec  1 15:24:53 2006.
