 Entering Gaussian System, Link 0=g03
 Input=tyrosine.com
 Output=tyrosine.log
 Initial command:
 /home/konrad/system/software//g03/l1.exe /scratch/Gau-11938.inp -scrdir=/scratch/
 Entering Link 1 = /home/konrad/system/software//g03/l1.exe PID=     11939.
  
 Copyright (c) 1988,1990,1992,1993,1995,1998,2003,2004, Gaussian, Inc.
                  All Rights Reserved.
  
 This is the Gaussian(R) 03 program.  It is based on the
 the Gaussian(R) 98 system (copyright 1998, Gaussian, Inc.),
 the Gaussian(R) 94 system (copyright 1995, Gaussian, Inc.),
 the Gaussian 92(TM) system (copyright 1992, Gaussian, Inc.),
 the Gaussian 90(TM) system (copyright 1990, Gaussian, Inc.),
 the Gaussian 88(TM) system (copyright 1988, Gaussian, Inc.),
 the Gaussian 86(TM) system (copyright 1986, Carnegie Mellon
 University), and the Gaussian 82(TM) system (copyright 1983,
 Carnegie Mellon University). Gaussian is a federally registered
 trademark of Gaussian, Inc.
  
 This software contains proprietary and confidential information,
 including trade secrets, belonging to Gaussian, Inc.
  
 This software is provided under written license and may be
 used, copied, transmitted, or stored only in accord with that
 written license.
  
 The following legend is applicable only to US Government
 contracts under FAR:
  
                    RESTRICTED RIGHTS LEGEND
  
 Use, reproduction and disclosure by the US Government is
 subject to restrictions as set forth in subparagraphs (a)
 and (c) of the Commercial Computer Software - Restricted
 Rights clause in FAR 52.227-19.
  
 Gaussian, Inc.
 340 Quinnipiac St., Bldg. 40, Wallingford CT 06492
  
  
 ---------------------------------------------------------------
 Warning -- This program may not be used in any manner that
 competes with the business of Gaussian, Inc. or will provide
 assistance to any competitor of Gaussian, Inc.  The licensee
 of this program is prohibited from giving any competitor of
 Gaussian, Inc. access to this program.  By using this program,
 the user acknowledges that Gaussian, Inc. is engaged in the
 business of creating and licensing software in the field of
 computational chemistry and represents and warrants to the
 licensee that it is not a competitor of Gaussian, Inc. and that
 it will not use this program in any manner prohibited above.
 ---------------------------------------------------------------
  

 Cite this work as:
 Gaussian 03, Revision D.01,
 M. J. Frisch, G. W. Trucks, H. B. Schlegel, G. E. Scuseria, 
 M. A. Robb, J. R. Cheeseman, J. A. Montgomery, Jr., T. Vreven, 
 K. N. Kudin, J. C. Burant, J. M. Millam, S. S. Iyengar, J. Tomasi, 
 V. Barone, B. Mennucci, M. Cossi, G. Scalmani, N. Rega, 
 G. A. Petersson, H. Nakatsuji, M. Hada, M. Ehara, K. Toyota, 
 R. Fukuda, J. Hasegawa, M. Ishida, T. Nakajima, Y. Honda, O. Kitao, 
 H. Nakai, M. Klene, X. Li, J. E. Knox, H. P. Hratchian, J. B. Cross, 
 V. Bakken, C. Adamo, J. Jaramillo, R. Gomperts, R. E. Stratmann, 
 O. Yazyev, A. J. Austin, R. Cammi, C. Pomelli, J. W. Ochterski, 
 P. Y. Ayala, K. Morokuma, G. A. Voth, P. Salvador, J. J. Dannenberg, 
 V. G. Zakrzewski, S. Dapprich, A. D. Daniels, M. C. Strain, 
 O. Farkas, D. K. Malick, A. D. Rabuck, K. Raghavachari, 
 J. B. Foresman, J. V. Ortiz, Q. Cui, A. G. Baboul, S. Clifford, 
 J. Cioslowski, B. B. Stefanov, G. Liu, A. Liashenko, P. Piskorz, 
 I. Komaromi, R. L. Martin, D. J. Fox, T. Keith, M. A. Al-Laham, 
 C. Y. Peng, A. Nanayakkara, M. Challacombe, P. M. W. Gill, 
 B. Johnson, W. Chen, M. W. Wong, C. Gonzalez, and J. A. Pople, 
 Gaussian, Inc., Wallingford CT, 2004.
 
 ******************************************
 Gaussian 03:  AM64L-G03RevD.01 13-Oct-2005
                 2-Aug-2006 
 ******************************************
 %Chk=tyrosine.chk
 %Mem=2GB
 %NProcShared=8
 Will use up to    8 processors via shared memory.
 ----------------------------------------------------------------------
 #p ub3lyp/EPR-II scrf=(pcm,solvent=water,read) scf=tight guess=read ge
 om=connectivity integral=(grid=ultrafine)
 ----------------------------------------------------------------------
 1/38=1,40=2,57=2/1;
 2/17=6,18=5,40=1/2;
 3/5=21,11=2,16=1,25=1,30=1,70=2203,72=1,74=-5,75=5/1,2,3;
 4/5=1,7=2/1;
 5/5=2,32=2,38=6,53=1/2;
 6/7=2,8=2,9=2,10=2,28=1/1;
 99/5=1,9=1/99;
 Leave Link    1 at Wed Aug  2 09:48:57 2006, MaxMem=  268435456 cpu:       0.6
 (Enter /home/konrad/system/software//g03/l101.exe)
 ------------------------------------
 Explicitly hydrated tyrosyl radical.
 ------------------------------------
 Symbolic Z-matrix:
 Charge =  0 Multiplicity = 2
 O
 C                    1    B1
 O                    2    B2       1    A1
 C                    2    B3       1    A2       3    D1       0
 N                    4    B4       2    A3       1    D2       0
 H                    5    B5       4    A4       2    D3       0
 H                    4    B6       2    A5       1    D4       0
 H                    5    B7       4    A6       2    D5       0
 H                    5    B8       4    A7       2    D6       0
 C                    4    B9       2    A8       1    D7       0
 H                    10   B10      4    A9       2    D8       0
 H                    10   B11      4    A10      2    D9       0
 C                    10   B12      4    A11      2    D10      0
 C                    13   B13      10   A12      4    D11      0
 C                    13   B14      10   A13      4    D12      0
 C                    14   B15      13   A14      10   D13      0
 H                    14   B16      13   A15      10   D14      0
 C                    15   B17      13   A16      10   D15      0
 H                    15   B18      13   A17      10   D16      0
 C                    18   B19      15   A18      13   D17      0
 H                    16   B20      14   A19      13   D18      0
 H                    18   B21      15   A20      13   D19      0
 O                    20   B22      18   A21      15   D20      0
 H                    23   B23      20   A22      18   D21      0
 O                    5    B24      4    A23      2    D22      0
 H                    25   B25      5    A24      4    D23      0
 H                    25   B26      5    A25      4    D24      0
 O                    3    B27      2    A26      1    D25      0
 H                    28   B28      3    A27      2    D26      0
 H                    28   B29      3    A28      2    D27      0
 O                    3    B30      2    A29      1    D28      0
 H                    31   B31      3    A30      2    D29      0
 H                    31   B32      3    A31      2    D30      0
 O                    5    B33      4    A32      2    D31      0
 H                    34   B34      5    A33      4    D32      0
 H                    34   B35      5    A34      4    D33      0
 O                    1    B36      2    A35      3    D34      0
 H                    37   B37      1    A36      2    D35      0
 H                    37   B38      1    A37      2    D36      0
 O                    23   B39      20   A38      18   D37      0
 H                    40   B40      23   A39      20   D38      0
 H                    23   B41      20   A40      18   D39      0
 O                    23   B42      20   A41      18   D40      0
 H                    43   B43      23   A42      20   D41      0
       Variables:
  B1                    1.25902                  
  B2                    1.26339                  
  B3                    1.55488                  
  B4                    1.51094                  
  B5                    1.04454                  
  B6                    1.12697                  
  B7                    1.04186                  
  B8                    1.05152                  
  B9                    1.55069                  
  B10                   1.09815                  
  B11                   1.09827                  
  B12                   1.50994                  
  B13                   1.42193                  
  B14                   1.4198                   
  B15                   1.37298                  
  B16                   1.08519                  
  B17                   1.3749                   
  B18                   1.0865                   
  B19                   1.44614                  
  B20                   1.08624                  
  B21                   1.08639                  
  B22                   1.27458                  
  B23                   1.88605                  
  B24                   2.81778                  
  B25                   0.97463                  
  B26                   0.9745                   
  B27                   2.80206                  
  B28                   0.97093                  
  B29                   0.97815                  
  B30                   2.74043                  
  B31                   0.98324                  
  B32                   0.97494                  
  B33                   2.79695                  
  B34                   0.97426                  
  B35                   0.98065                  
  B36                   2.82017                  
  B37                   0.97197                  
  B38                   0.97721                  
  B39                   2.85884                  
  B40                   0.97133                  
  B41                   3.27046                  
  B42                   2.86267                  
  B43                   0.97685                  
  A1                  125.47021                  
  A2                  117.61508                  
  A3                  107.49022                  
  A4                  105.82502                  
  A5                  110.10994                  
  A6                  111.59956                  
  A7                  111.89382                  
  A8                  114.09147                  
  A9                  106.02677                  
  A10                 106.89541                  
  A11                 118.83508                  
  A12                 121.34526                  
  A13                 119.64256                  
  A14                 120.88879                  
  A15                 119.58953                  
  A16                 121.4689                   
  A17                 118.72539                  
  A18                 120.08123                  
  A19                 122.12417                  
  A20                 122.46816                  
  A21                 120.99424                  
  A22                 112.9554                   
  A23                 111.62027                  
  A24                 122.05141                  
  A25                 119.66798                  
  A26                 113.77727                  
  A27                 105.61905                  
  A28                  10.0379                   
  A29                 109.50863                  
  A30                  16.7314                   
  A31                 104.83935                  
  A32                  89.6213                   
  A33                 115.17365                  
  A34                  88.69392                  
  A35                 130.67872                  
  A36                 100.97474                  
  A37                   5.12454                  
  A38                 111.68458                  
  A39                 106.41216                  
  A40                 108.10619                  
  A41                 109.98759                  
  A42                   7.11924                  
  D1                 -178.40825                  
  D2                  105.14912                  
  D3                  -63.65706                  
  D4                   -9.33378                  
  D5                  177.6518                   
  D6                   54.17474                  
  D7                 -129.21931                  
  D8                   52.88304                  
  D9                  166.25456                  
  D10                 -70.81215                  
  D11                  93.36768                  
  D12                 -89.22867                  
  D13                 177.72947                  
  D14                  -3.94933                  
  D15                -177.84507                  
  D16                   2.32236                  
  D17                   0.26706                  
  D18                -179.96146                  
  D19                -179.88994                  
  D20                 179.80809                  
  D21                 177.63848                  
  D22                 177.56738                  
  D23                  -1.30104                  
  D24                -135.91571                  
  D25                  68.05791                  
  D26                 -20.57113                  
  D27                -101.26976                  
  D28                -129.50445                  
  D29                -179.65943                  
  D30                  89.88063                  
  D31                 -60.7695                   
  D32                 128.50246                  
  D33                  23.09779                  
  D34                -125.79858                  
  D35                  61.96856                  
  D36                 -52.05104                  
  D37                 179.40868                  
  D38                 -86.46637                  
  D39                 -17.2612                   
  D40                   0.16921                  
  D41                -152.98253                  
 
                    Isotopes and Nuclear Properties:
 (Nuclear quadrupole moments (NQMom) in fm**2, nuclear magnetic moments (NMagM)
  in nuclear magnetons)

  Atom         1           2           3           4           5           6           7           8           9          10
 IAtWgt=          16          12          16          12          14           1           1           1           1          12
 AtmWgt=  15.9949146  12.0000000  15.9949146  12.0000000  14.0030740   1.0078250   1.0078250   1.0078250   1.0078250  12.0000000
 NucSpn=           0           0           0           0           2           1           1           1           1           0
 AtZEff=   0.0000000   0.0000000   0.0000000   0.0000000   0.0000000   0.0000000   0.0000000   0.0000000   0.0000000   0.0000000
 NQMom=    0.0000000   0.0000000   0.0000000   0.0000000   2.0440000   0.0000000   0.0000000   0.0000000   0.0000000   0.0000000
 NMagM=    0.0000000   0.0000000   0.0000000   0.0000000   0.4037610   2.7928460   2.7928460   2.7928460   2.7928460   0.0000000

  Atom        11          12          13          14          15          16          17          18          19          20
 IAtWgt=           1           1          12          12          12          12           1          12           1          12
 AtmWgt=   1.0078250   1.0078250  12.0000000  12.0000000  12.0000000  12.0000000   1.0078250  12.0000000   1.0078250  12.0000000
 NucSpn=           1           1           0           0           0           0           1           0           1           0
 AtZEff=   0.0000000   0.0000000   0.0000000   0.0000000   0.0000000   0.0000000   0.0000000   0.0000000   0.0000000   0.0000000
 NQMom=    0.0000000   0.0000000   0.0000000   0.0000000   0.0000000   0.0000000   0.0000000   0.0000000   0.0000000   0.0000000
 NMagM=    2.7928460   2.7928460   0.0000000   0.0000000   0.0000000   0.0000000   2.7928460   0.0000000   2.7928460   0.0000000

  Atom        21          22          23          24          25          26          27          28          29          30
 IAtWgt=           1           1          16           1          16           1           1          16           1           1
 AtmWgt=   1.0078250   1.0078250  15.9949146   1.0078250  15.9949146   1.0078250   1.0078250  15.9949146   1.0078250   1.0078250
 NucSpn=           1           1           0           1           0           1           1           0           1           1
 AtZEff=   0.0000000   0.0000000   0.0000000   0.0000000   0.0000000   0.0000000   0.0000000   0.0000000   0.0000000   0.0000000
 NQMom=    0.0000000   0.0000000   0.0000000   0.0000000   0.0000000   0.0000000   0.0000000   0.0000000   0.0000000   0.0000000
 NMagM=    2.7928460   2.7928460   0.0000000   2.7928460   0.0000000   2.7928460   2.7928460   0.0000000   2.7928460   2.7928460

  Atom        31          32          33          34          35          36          37          38          39          40
 IAtWgt=          16           1           1          16           1           1          16           1           1          16
 AtmWgt=  15.9949146   1.0078250   1.0078250  15.9949146   1.0078250   1.0078250  15.9949146   1.0078250   1.0078250  15.9949146
 NucSpn=           0           1           1           0           1           1           0           1           1           0
 AtZEff=   0.0000000   0.0000000   0.0000000   0.0000000   0.0000000   0.0000000   0.0000000   0.0000000   0.0000000   0.0000000
 NQMom=    0.0000000   0.0000000   0.0000000   0.0000000   0.0000000   0.0000000   0.0000000   0.0000000   0.0000000   0.0000000
 NMagM=    0.0000000   2.7928460   2.7928460   0.0000000   2.7928460   2.7928460   0.0000000   2.7928460   2.7928460   0.0000000

  Atom        41          42          43          44
 IAtWgt=           1           1          16           1
 AtmWgt=   1.0078250   1.0078250  15.9949146   1.0078250
 NucSpn=           1           1           0           1
 AtZEff=   0.0000000   0.0000000   0.0000000   0.0000000
 NQMom=    0.0000000   0.0000000   0.0000000   0.0000000
 NMagM=    2.7928460   2.7928460   0.0000000   2.7928460
 Leave Link  101 at Wed Aug  2 09:49:01 2006, MaxMem=  268435456 cpu:       0.3
 (Enter /home/konrad/system/software//g03/l202.exe)
                          Input orientation:                          
 ---------------------------------------------------------------------
 Center     Atomic     Atomic              Coordinates (Angstroms)
 Number     Number      Type              X           Y           Z
 ---------------------------------------------------------------------
    1          8             0        0.000000    0.000000    0.000000
    2          6             0        0.000000    0.000000    1.259020
    3          8             0        1.028926    0.000000    1.992139
    4          6             0       -1.377219   -0.038271    1.979752
    5          7             0       -1.566298   -1.435070    2.523942
    6          1             0       -1.601646   -2.063249    1.690155
    7          1             0       -2.209050    0.110316    1.234063
    8          1             0       -2.457511   -1.521788    3.056563
    9          1             0       -0.759469   -1.732681    3.129039
   10          6             0       -1.553606    1.053974    3.066273
   11          1             0       -1.319423    2.008850    2.577090
   12          1             0       -2.622419    1.085110    3.317004
   13          6             0       -0.766364    0.938433    4.349556
   14          6             0        0.492174    1.581528    4.505716
   15          6             0       -1.312021    0.219931    5.445848
   16          6             0        1.178592    1.508492    5.692551
   17          1             0        0.929153    2.114674    3.667597
   18          6             0       -0.647425    0.128001    6.645942
   19          1             0       -2.275517   -0.267057    5.323398
   20          6             0        0.634346    0.775629    6.816154
   21          1             0        2.140753    1.992377    5.834066
   22          1             0       -1.048879   -0.418768    7.494537
   23          8             0        1.263798    0.704749    7.922191
   24          1             0        2.939429    1.568973    7.871640
   25          8             0       -3.974601   -1.669572    3.967881
   26          1             0       -4.576285   -0.913694    4.096428
   27          1             0       -3.981499   -2.140063    4.821250
   28          8             0        2.505012    2.378471    1.867354
   29          1             0        2.243635    2.804994    1.035208
   30          1             0        2.109540    1.485961    1.805719
   31          8             0        0.820729   -1.993062    3.861451
   32          1             0        1.143698   -1.234236    3.326058
   33          1             0        1.221960   -2.774675    3.438833
   34          8             0       -1.423369   -2.448528   -0.079015
   35          1             0       -0.786976   -3.175130   -0.206470
   36          1             0       -0.930865   -1.642287   -0.341862
   37          8             0       -1.251034    1.734692   -1.838232
   38          1             0       -0.820957    2.578248   -1.618767
   39          1             0       -0.895566    1.124129   -1.163111
   40          8             0        3.756662    2.099764    7.810187
   41          1             0        4.406966    1.471610    7.455203
   42          1             0       -0.848136   -0.236702   10.235044
   43          8             0       -0.232810   -0.851567    9.801803
   44          1             0        0.325664   -0.264121    9.256602
 ---------------------------------------------------------------------
                    Distance matrix (angstroms):
                    1          2          3          4          5
     1  O    0.000000
     2  C    1.259020   0.000000
     3  O    2.242165   1.263389   0.000000
     4  C    2.411973   1.554880   2.406482   0.000000
     5  N    3.298939   2.472397   3.012877   1.510940   0.000000
     6  H    3.111092   2.647290   3.356799   2.057856   1.044538
     7  H    2.532781   2.211943   3.327362   1.126975   2.113087
     8  H    4.206873   3.403874   3.950200   2.127763   1.041857
     9  H    3.656482   2.660066   2.737350   2.138574   1.051517
    10  C    3.595356   2.605900   2.988996   1.550690   2.547474
    11  H    3.523883   2.741106   3.145217   2.133273   3.453166
    12  H    4.365440   3.505688   4.032996   2.144936   2.845285
    13  C    4.515153   3.319546   3.108237   2.634970   3.099400
    14  C    4.800515   3.644791   3.017847   3.535375   4.155069
    15  C    5.605981   4.393097   4.178099   3.476311   3.367672
    16  C    6.005811   4.829164   3.998874   4.765450   5.122407
    17  H    4.334333   3.337127   2.699808   3.578176   4.487305
    18  C    6.678629   5.427197   4.948173   4.725841   4.503154
    19  H    5.795503   4.665669   4.699782   3.469762   3.115156
    20  C    6.889409   5.646746   4.901879   5.300907   5.305950
    21  H    6.526003   5.429865   4.468347   5.599589   6.037097
    22  H    7.579155   6.336970   5.896527   5.537638   5.099745
    23  O    8.053258   6.818483   5.976400   6.545199   6.459827
    24  H    8.547785   7.404638   6.378105   7.478705   7.610763
    25  O    5.859096   5.091449   5.632611   3.655159   2.817778
    26  H    6.209505   5.461512   6.056506   3.934553   3.435778
    27  H    6.608832   5.755145   6.139064   4.390207   3.407027
    28  O    3.926731   3.507461   2.802057   4.574385   5.616918
    29  H    3.738120   3.598885   3.203002   4.699670   5.891524
    30  H    3.149422   2.637635   1.846770   3.809339   4.749742
    31  O    4.422295   3.379133   2.740432   3.491844   2.792522
    32  H    3.727472   2.665339   1.820948   3.098047   2.833338
    33  H    4.584494   3.734112   3.135125   4.046302   3.225826
    34  O    2.833286   3.132348   4.037167   3.170172   2.796947
    35  H    3.277715   3.584472   4.267650   3.868829   3.330211
    36  H    1.918459   2.475164   3.462001   2.856920   2.942711
    37  O    2.820166   3.763935   4.783211   4.211451   5.401420
    38  H    3.153052   3.950062   4.807085   4.483853   5.815866
    39  H    1.848927   2.816455   3.863022   3.385373   4.538033
    40  O    8.917429   7.838323   6.760121   8.057413   8.292969
    41  H    8.784477   7.744655   6.589527   8.106609   8.273210
    42  H   10.272852   9.019112   8.457238   8.274609   7.836641
    43  O    9.841479   8.588278   7.956633   7.947050   7.421989
    44  H    9.266094   8.008567   7.303202   7.476855   7.090793
                    6          7          8          9         10
     6  H    0.000000
     7  H    2.302465   0.000000
     8  H    1.700810   2.459065   0.000000
     9  H    1.699684   3.014773   1.712622   0.000000
    10  C    3.407798   2.162658   2.729778   2.898281   0.000000
    11  H    4.177115   2.489897   3.740393   3.823250   1.098148
    12  H    3.687924   2.336609   2.625060   3.383173   1.098270
    13  C    4.096365   3.531772   3.253382   2.936760   1.509938
    14  C    5.059236   4.490522   4.520095   3.800767   2.556467
    15  C    4.404773   4.307645   3.170869   3.079871   2.533055
    16  C    6.042038   5.771405   5.417773   4.564304   3.816913
    17  H    5.269750   4.448354   5.006667   4.235992   2.766002
    18  C    5.501994   5.632709   4.345325   3.980363   3.806917
    19  H    4.108633   4.107248   2.597308   3.043298   2.713096
    20  C    6.271743   6.299784   5.382586   4.672168   4.350428
    21  H    6.901134   6.604768   6.419338   5.441003   4.710580
    22  H    6.058111   6.389010   4.785029   4.568117   4.693957
    23  O    7.396679   7.559436   6.517664   5.745344   5.624914
    24  H    8.486763   8.525957   7.865413   6.861124   6.598798
    25  O    3.312692   3.709303   1.775923   3.323358   3.753906
    26  H    3.995010   3.852991   2.437274   4.021774   3.750937
    27  H    3.933619   4.590609   2.412245   3.662105   4.379096
    28  O    6.051852   5.269531   6.422840   5.399098   4.434420
    29  H    6.238183   5.208380   6.701319   5.830373   4.648691
    30  H    5.136453   4.568305   5.609734   4.510215   3.897980
    31  O    3.253821   4.528457   3.408342   1.761037   3.943881
    32  H    3.301568   4.174348   3.622709   1.977197   3.546666
    33  H    3.396580   4.995599   3.905684   2.260042   4.743535
    34  O    1.819392   2.981468   3.429307   3.353329   4.709280
    35  H    2.344601   3.858962   4.021395   3.634149   5.402211
    36  H    2.180883   2.681215   3.727528   3.476306   4.390104
    37  O    5.195845   3.604912   6.001605   6.077671   4.960755
    38  H    5.753428   4.019469   6.430188   6.413232   4.980942
    39  H    4.335788   2.915390   5.219789   5.157755   4.280844
    40  O    9.137666   9.099067   8.621399   7.549584   7.197037
    41  H    9.046238   9.182993   8.685016   7.461584   7.413875
    42  H    8.770358   9.109894   7.468074   7.262308   7.318115
    43  O    8.315089   8.845163   7.134195   6.751259   7.123409
    44  H    8.012647   8.421764   6.911459   6.393841   6.602212
                   11         12         13         14         15
    11  H    0.000000
    12  H    1.760274   0.000000
    13  C    2.143198   2.128995   0.000000
    14  C    2.680314   3.370484   1.421927   0.000000
    15  C    3.380837   2.645308   1.419804   2.448043   0.000000
    16  C    4.024491   4.502239   2.431348   1.372983   2.815031
    17  H    2.501299   3.714375   2.173335   1.085190   3.431485
    18  C    4.532629   3.987290   2.438101   2.827012   1.374905
    19  H    3.692705   2.444240   2.163127   3.427242   1.086497
    20  C    4.827806   4.790235   2.841233   2.451084   2.444358
    21  H    4.751945   5.463199   3.430145   2.156646   3.900503
    22  H    5.490701   4.710568   3.436963   3.912683   2.162014
    23  O    6.078142   6.037806   4.115810   3.610602   3.605852
    24  H    6.809080   7.205067   5.151268   4.161569   5.077323
    25  O    4.745003   3.136926   4.152126   5.550765   3.583844
    26  H    4.632149   2.901778   4.243813   5.664180   3.709645
    27  H    5.416307   3.809409   4.476241   5.827827   3.617432
    28  O    3.907256   5.483139   4.351659   3.412856   5.659916
    29  H    3.963158   5.642966   4.850674   4.075402   6.227277
    30  H    3.553339   4.983583   3.878365   3.148807   5.153683
    31  O    4.716474   4.650466   3.369091   3.647015   3.457784
    32  H    4.140715   4.423018   3.068612   3.121635   3.555090
    33  H    5.484828   5.449040   4.309295   4.543934   4.406453
    34  O    5.189789   5.045519   5.613858   6.397688   6.136545
    35  H    5.908075   5.825236   6.138339   6.816650   6.614440
    36  H    4.690635   4.866965   5.356919   5.993082   6.091857
    37  O    4.424354   5.373929   6.257607   6.580874   7.440164
    38  H    4.263555   5.462285   6.189737   6.342479   7.464019
    39  H    3.866716   4.801560   5.517307   5.854112   6.683513
    40  O    7.291104   7.868347   5.812265   4.673861   5.900459
    41  H    7.541627   8.166170   6.057447   4.902770   6.189590
    42  H    7.994303   7.263233   6.002217   6.158539   4.833229
    43  O    7.845966   7.177295   5.763313   5.873168   4.613800
    44  H    7.244901   6.766864   5.168923   5.099517   4.175903
                   16         17         18         19         20
    16  C    0.000000
    17  H    2.128407   0.000000
    18  C    2.479726   3.911905   0.000000
    19  H    3.901245   4.322525   2.134450   0.000000
    20  C    1.447679   3.434147   1.446143   3.432611   0.000000
    21  H    1.086244   2.485260   3.450938   4.986909   2.171229
    22  H    3.452986   4.997640   1.086387   2.498300   2.172564
    23  O    2.371615   4.494602   2.369435   4.497209   1.274579
    24  H    2.802255   4.691799   4.055152   6.087709   2.656473
    25  O    6.295233   6.201410   4.633937   2.586766   5.944246
    26  H    6.444626   6.297996   4.798030   2.686471   6.115669
    27  H    6.379471   6.599107   4.426022   2.582766   5.812653
    28  O    4.141061   2.407031   6.151209   6.465022   5.528030
    29  H    4.950361   3.022230   6.856007   6.946135   6.334624
    30  H    3.996828   2.292419   5.733468   5.888621   5.271170
    31  O    3.967602   4.113737   3.795757   3.834465   4.053475
    32  H    3.622715   3.373111   4.010666   4.076252   4.059528
    33  H    4.840107   4.903448   4.712290   4.698093   4.935205
    34  O    7.465867   6.355649   7.243316   5.888212   7.884969
    35  H    7.784486   6.777575   7.608265   6.422779   8.182048
    36  H    7.126805   5.800878   7.214129   5.982852   7.715789
    37  O    7.916245   5.933949   8.656038   7.506364   8.909145
    38  H    7.654929   5.587793   8.622020   7.642326   8.747299
    39  H    7.172863   5.257996   7.876239   6.776021   8.132082
    40  O    3.388279   5.015584   4.963799   6.940688   3.534161
    41  H    3.678411   5.182150   5.292170   7.226558   3.889144
    42  H    5.271392   7.198547   3.613164   5.114940   3.861525
    43  O    4.944480   6.912107   3.330303   4.956856   3.509106
    44  H    4.070885   6.104084   2.813576   4.715533   2.670608
                   21         22         23         24         25
    21  H    0.000000
    22  H    4.329497   0.000000
    23  O    2.605245   2.606465   0.000000
    24  H    2.229095   4.472128   1.886048   0.000000
    25  O    7.368179   4.749911   6.979598   8.575040   0.000000
    26  H    7.522183   4.922874   7.166756   8.769368   0.974628
    27  H    7.455524   4.325457   6.724726   8.423840   0.974499
    28  O    4.002069   7.219410   6.403359   6.074163   7.923651
    29  H    4.868260   7.934495   7.266473   6.982025   8.202972
    30  H    4.060173   6.779841   6.223889   6.122989   7.186731
    31  O    4.638685   4.378715   4.895315   5.767027   4.807406
    32  H    4.206573   4.780021   4.989842   5.634265   5.176720
    33  H    5.413511   5.211117   5.675266   6.439468   5.339044
    34  O    8.209088   7.849768   9.010179   9.919034   4.846950
    35  H    8.471293   8.183620   9.237655  10.082087   5.463777
    36  H    7.796647   7.932217   8.866775   9.630835   5.276264
    37  O    8.392542   9.580126  10.131684  10.576816   7.260701
    38  H    8.041124   9.596163   9.944148  10.258019   7.694159
    39  H    7.676820   8.795391   9.347804   9.825060   6.603961
    40  O    2.554946   5.434691   2.858843   0.976415   9.420384
    41  H    2.834609   5.774195   3.268893   1.528583   9.606201
    42  H    5.768090   2.753875   3.270456   4.815785   7.148792
    43  O    5.428145   2.485309   2.862674   4.432567   6.978880
    44  H    4.483312   2.240125   1.897224   3.479960   6.959751
                   26         27         28         29         30
    26  H    0.000000
    27  H    1.543735   0.000000
    28  O    8.121077   8.439045   0.000000
    29  H    8.349312   8.805679   0.970930   0.000000
    30  H    7.463642   7.703391   0.978147   1.533466   0.000000
    31  O    5.508903   4.899410   5.091515   5.747490   4.241540
    32  H    5.780521   5.415142   4.127063   4.772130   3.262476
    33  H    6.124976   5.421236   5.538112   6.160676   4.648427
    34  O    5.452607   5.536405   6.520770   6.502914   5.613721
    35  H    6.163432   6.046016   6.780886   6.818229   5.845039
    36  H    5.789504   6.017630   5.731700   5.634898   4.862315
    37  O    7.300098   8.174220   5.315421   4.649184   4.963235
    38  H    7.678516   8.586344   4.822345   4.060384   4.637673
    39  H    6.735219   7.482680   4.724513   4.184794   4.239757
    40  O    9.607858   9.316062   6.079603   6.977602   6.256468
    41  H    9.882806   9.505170   5.971925   6.904654   6.098773
    42  H    7.213877   6.538342   9.386212  10.170936   9.097743
    43  O    7.170839   6.365438   8.993570   9.816129   8.653785
    44  H    7.146919   6.460895   8.144559   8.982727   7.858795
                   31         32         33         34         35
    31  O    0.000000
    32  H    0.983245   0.000000
    33  H    0.974942   1.546543   0.000000
    34  O    4.557488   4.433831   4.413547   0.000000
    35  H    4.531002   4.469153   4.181439   0.974264   0.000000
    36  H    4.567161   4.233669   4.495622   0.980649   1.545524
    37  O    7.118618   6.420215   7.368684   4.541351   5.194646
    38  H    7.322895   6.545701   7.642422   5.291712   5.924280
    39  H    6.157009   5.465631   6.392377   3.770638   4.405744
    40  O    6.400269   6.168513   7.020940  10.476602  10.617719
    41  H    6.146552   5.917801   6.656307  10.301686  10.357146
    42  H    6.818548   7.259240   7.544209  10.564227  10.847273
    43  O    6.140093   6.631477   6.804563  10.079597  10.289391
    44  H    5.687001   6.064788   6.399427   9.745999   9.963016
                   36         37         38         39         40
    36  H    0.000000
    37  O    3.707508   0.000000
    38  H    4.410837   0.971966   0.000000
    39  H    2.885958   0.977207   1.525665   0.000000
    40  O   10.120858  10.876685  10.492316  10.154564   0.000000
    41  H    9.949021  10.883479  10.530563  10.124867   0.971333
    42  H   10.670214  12.239800  12.183494  11.479201   5.704662
    43  O   10.198356  11.967286  11.938968  11.161181   5.347222
    44  H    9.777971  11.383170  11.299002  10.582488   4.410421
                   41         42         43         44
    41  H    0.000000
    42  H    6.185624   0.000000
    43  O    5.694841   0.971793   0.000000
    44  H    4.786944   1.528367   0.976848   0.000000
 Stoichiometry    C9H24NO10(2)
 Framework group  C1[X(C9H24NO10)]
 Deg. of freedom   126
 Full point group                 C1
 Largest Abelian subgroup         C1      NOp   1
 Largest concise Abelian subgroup C1      NOp   1
                         Standard orientation:                         
 ---------------------------------------------------------------------
 Center     Atomic     Atomic              Coordinates (Angstroms)
 Number     Number      Type              X           Y           Z
 ---------------------------------------------------------------------
    1          8             0       -3.638997   -0.975564    0.492335
    2          6             0       -2.425897   -0.652531    0.396578
    3          8             0       -1.461353   -1.253917    0.948069
    4          6             0       -2.080566    0.611611   -0.440287
    5          7             0       -1.733661    1.717265    0.529315
    6          1             0       -2.604369    1.899662    1.076725
    7          1             0       -2.993940    0.971213   -0.993917
    8          1             0       -1.452147    2.588709    0.032525
    9          1             0       -0.975893    1.428362    1.198651
   10          6             0       -0.976278    0.383773   -1.504841
   11          1             0       -1.299993   -0.482640   -2.096842
   12          1             0       -0.999965    1.249895   -2.179726
   13          6             0        0.446971    0.176895   -1.044973
   14          6             0        0.973061   -1.126674   -0.830931
   15          6             0        1.299501    1.299143   -0.872941
   16          6             0        2.282037   -1.305918   -0.457391
   17          1             0        0.324769   -1.990353   -0.937771
   18          6             0        2.614019    1.151148   -0.498104
   19          1             0        0.894447    2.293228   -1.040880
   20          6             0        3.159900   -0.169305   -0.275063
   21          1             0        2.704836   -2.292263   -0.289197
   22          1             0        3.280050    1.998265   -0.360147
   23          8             0        4.376933   -0.326838    0.069270
   24          1             0        4.829082   -2.133441    0.367475
   25          8             0       -0.968468    4.073437   -0.813370
   26          1             0       -0.925228    4.123830   -1.785734
   27          1             0       -0.191742    4.574208   -0.504220
   28          8             0       -0.989871   -3.816435   -0.082820
   29          1             0       -1.817552   -4.080073   -0.516577
   30          1             0       -1.231547   -3.004246    0.405763
   31          8             0        0.102053    0.556844    2.284808
   32          1             0       -0.262156   -0.274325    1.906284
   33          1             0       -0.277221    0.599932    3.181918
   34          8             0       -4.300139    1.535390    1.626140
   35          1             0       -4.330894    1.441440    2.595376
   36          1             0       -4.354793    0.616199    1.288835
   37          8             0       -5.562632   -1.506842   -1.500329
   38          1             0       -5.164756   -2.276316   -1.941149
   39          1             0       -4.879769   -1.247520   -0.851189
   40          8             0        5.024318   -3.088229    0.427875
   41          1             0        4.786986   -3.309092    1.343506
   42          1             0        5.987916    2.440374   -0.596430
   43          8             0        5.667641    2.218461    0.293829
   44          1             0        5.337122    1.304800    0.192775
 ---------------------------------------------------------------------
 Rotational constants (GHZ):      0.3553333      0.1518410      0.1226757
 Leave Link  202 at Wed Aug  2 09:49:06 2006, MaxMem=  268435456 cpu:       0.2
 (Enter /home/konrad/system/software//g03/l301.exe)
 Standard basis: EPR-II (5D, 7F)
 There are   508 symmetry adapted basis functions of A   symmetry.
 Integral buffers will be    131072 words long.
 Raffenetti 2 integral format.
 Two-electron integral symmetry is turned on.
   508 basis functions,   836 primitive gaussians,   528 cartesian basis functions
    83 alpha electrons       82 beta electrons
       nuclear repulsion energy      1757.4558161298 Hartrees.
 IExCor= 402 DFT=T Ex=B+HF Corr=LYP ExCW=0 ScaHFX=  0.200000
 ScaDFX=  0.800000  0.720000  1.000000  0.810000
 IRadAn=      5 IRanWt=     -1 IRanGd=            0 ICorTp=0
 NAtoms=   44 NActive=   44 NUniq=   44 SFac= 7.50D-01 NAtFMM=   80 NAOKFM=F Big=F
 Using the following non-standard input for PCM:
 RADII=UAKS
 --- end of non-standard input.
 ------------------------------------------------------------------------------
 United Atom Topological Model (UAKS parameters set).
  Nord Group  Hybr  Charge Alpha Radius          Bonded to
    1   O     sp3   0.00   1.20  1.500   C2   [d]
    2   C     sp2   0.00   1.20  1.680   O1   [d]  O3   [d]  C4   [s]
    3   O     sp3   0.00   1.20  1.500   C2   [d]
    4   CH    sp3   0.00   1.20  1.500   C2   [s]  N5   [s]  C10  [s]
    5   NH3   sp3   0.00   1.20  1.770   C4   [s]
   10   CH2   sp3   0.00   1.20  1.770   C4   [s]  C13  [s]
   13   C     sp2   0.00   1.20  1.725   C10  [s]  C14  [s]  C15  [s]
   14   CH    sp2   0.00   1.20  1.905   C13  [s]  C16  [d]
   15   CH    sp2   0.00   1.20  1.905   C13  [s]  C18  [d]
   16   CH    sp2   0.00   1.20  1.815   C14  [d]  C20  [s]
   18   CH    sp2   0.00   1.20  1.815   C15  [d]  C20  [s]
   20   C     sp2   0.00   1.20  1.725   C16  [s]  C18  [s]  O23  [d]
   23   O     sp3   0.00   1.20  1.500   C20  [d]
   25   OH2   sp3   0.00   1.20  1.680
   28   OH2   sp3   0.00   1.20  1.680
   31   OH2   sp3   0.00   1.20  1.680
   34   OH2   sp3   0.00   1.20  1.680
   37   OH2   sp3   0.00   1.20  1.680
   40   OH2   sp3   0.00   1.20  1.680
   43   OH2   sp3   0.00   1.20  1.680
 ------------------------------------------------------------------------------
 Polarizable Continuum Model (PCM)
 =================================
 Model                : PCM.
 Atomic radii         : UAKS (United Atom Topological Model).
 Polarization charges : Total charges.
 Charge compensation  : None.
 Solution method      : Matrix inversion.
 Cavity               : GePol (RMin=0.200 OFac=0.890).
                        Default sphere list used, NSphG=   20.
                        Tesserae with average area of 0.200 Ang**2.
 Solvent              : Water, Eps     =  78.390000
                               Eps(inf)=   1.776000
                               RSolv   =   1.385000 Ang.
 ------------------------------------------------------------------------------
 GePol: Number of tesserae being generated         =    4098
 GePol: Average area of tesserae                   =       0.09 Ang**2
 GePol: Minimum area of tessera                    =   0.10D-02 Ang**2
 GePol: Maximum area of tessera                    =    0.31826 Ang**2
 GePol: Number of small tesserae                   =       0
 GePol: Fraction of small tesserae (<1% of avg)    =       0.00%
 GePol: Total count of vertices                    =   15769
 GePol: Maximum number of vertices in a tessera    =      10
 GePol: Cavity surface area                        =    388.506 Ang**2
 GePol: Cavity volume                              =    446.193 Ang**3
 Leave Link  301 at Wed Aug  2 09:49:26 2006, MaxMem=  268435456 cpu:      15.7
 (Enter /home/konrad/system/software//g03/l302.exe)
 NPDir=0 NMtPBC=     1 NCelOv=     1 NCel=       1 NClECP=     1 NCelD=      1
         NCelK=      1 NCelE2=     1 NClLst=     1 CellRange=     0.0.
 One-electron integrals computed using PRISM.
 NBasis=   508 RedAO= T  NBF=   508
 NBsUse=   508 1.00D-06 NBFU=   508
 Precomputing XC quadrature grid using
 IXCGrd= 2 IRadAn=           5 IRanWt=          -1 IRanGd=           0.
 NRdTot=    3755 NPtTot=     1011572 NUsed=     1038034 NTot=     1038066
 NSgBfM=   479   480   480   480.
 Leave Link  302 at Wed Aug  2 09:49:34 2006, MaxMem=  268435456 cpu:       4.3
 (Enter /home/konrad/system/software//g03/l303.exe)
 DipDrv:  MaxL=1.
 Leave Link  303 at Wed Aug  2 09:49:39 2006, MaxMem=  268435456 cpu:       0.2
 (Enter /home/konrad/system/software//g03/l401.exe)
 Initial guess read from the checkpoint file:
 tyrosine.chk
 Guess basis will be translated and rotated to current coordinates.
 Initial guess orbital symmetries:
 Alpha Orbitals:
       Occupied  (A) (A) (A) (A) (A) (A) (A) (A) (A) (A) (A) (A)
                 (A) (A) (A) (A) (A) (A) (A) (A) (A) (A) (A) (A)
                 (A) (A) (A) (A) (A) (A) (A) (A) (A) (A) (A) (A)
                 (A) (A) (A) (A) (A) (A) (A) (A) (A) (A) (A) (A)
                 (A) (A) (A) (A) (A) (A) (A) (A) (A) (A) (A) (A)
                 (A) (A) (A) (A) (A) (A) (A) (A) (A) (A) (A) (A)
                 (A) (A) (A) (A) (A) (A) (A) (A) (A) (A) (A)
       Virtual   (A) (A) (A) (A) (A) (A) (A) (A) (A) (A) (A) (A)
                 (A) (A) (A) (A) (A) (A) (A) (A) (A) (A) (A) (A)
                 (A) (A) (A) (A) (A) (A) (A) (A) (A) (A) (A) (A)
                 (A) (A) (A) (A) (A) (A) (A) (A) (A) (A) (A) (A)
                 (A) (A) (A) (A) (A) (A) (A) (A) (A) (A) (A) (A)
                 (A) (A) (A) (A) (A) (A) (A) (A) (A) (A) (A) (A)
                 (A) (A) (A) (A) (A) (A) (A) (A) (A) (A) (A) (A)
                 (A) (A) (A) (A) (A) (A) (A) (A) (A) (A) (A) (A)
                 (A) (A) (A) (A) (A) (A) (A) (A) (A) (A) (A) (A)
                 (A) (A) (A) (A) (A) (A) (A) (A) (A) (A) (A) (A)
                 (A) (A) (A) (A) (A) (A) (A) (A) (A) (A) (A) (A)
                 (A) (A) (A) (A) (A) (A) (A) (A) (A) (A) (A) (A)
                 (A) (A) (A) (A) (A) (A) (A) (A) (A) (A) (A) (A)
                 (A) (A) (A) (A) (A) (A) (A) (A) (A) (A) (A) (A)
                 (A) (A) (A) (A) (A) (A) (A) (A) (A) (A) (A) (A)
                 (A) (A) (A) (A) (A) (A) (A) (A) (A) (A) (A) (A)
                 (A) (A) (A) (A) (A) (A) (A) (A) (A) (A) (A) (A)
                 (A) (A) (A) (A) (A) (A) (A) (A) (A) (A) (A) (A)
                 (A) (A) (A) (A) (A) (A) (A) (A) (A) (A) (A) (A)
                 (A) (A) (A) (A) (A) (A) (A) (A) (A) (A) (A) (A)
                 (A) (A) (A) (A) (A) (A) (A) (A) (A) (A) (A) (A)
                 (A) (A) (A) (A) (A) (A) (A) (A) (A) (A) (A) (A)
                 (A) (A) (A) (A) (A) (A) (A) (A) (A) (A) (A) (A)
                 (A) (A) (A) (A) (A) (A) (A) (A) (A) (A) (A) (A)
                 (A) (A) (A) (A) (A) (A) (A) (A) (A) (A) (A) (A)
                 (A) (A) (A) (A) (A) (A) (A) (A) (A) (A) (A) (A)
                 (A) (A) (A) (A) (A) (A) (A) (A) (A) (A) (A) (A)
                 (A) (A) (A) (A) (A) (A) (A) (A) (A) (A) (A) (A)
                 (A) (A) (A) (A) (A) (A) (A) (A) (A) (A) (A) (A)
                 (A) (A) (A) (A) (A) (A) (A) (A) (A) (A) (A) (A)
                 (A) (A) (A) (A) (A) (A) (A) (A) (A) (A) (A) (A)
                 (A) (A) (A) (A) (A) (A) (A) (A) (A) (A) (A) (A)
                 (A) (A) (A) (A) (A) (A) (A) (A) (A) (A) (A) (A)
                 (A) (A) (A) (A) (A) (A) (A) (A) (A) (A) (A) (A)
                 (A) (A) (A) (A) (A) (A) (A) (A) (A) (A) (A) (A)
                 (A) (A) (A) (A) (A)
 Beta  Orbitals:
       Occupied  (A) (A) (A) (A) (A) (A) (A) (A) (A) (A) (A) (A)
                 (A) (A) (A) (A) (A) (A) (A) (A) (A) (A) (A) (A)
                 (A) (A) (A) (A) (A) (A) (A) (A) (A) (A) (A) (A)
                 (A) (A) (A) (A) (A) (A) (A) (A) (A) (A) (A) (A)
                 (A) (A) (A) (A) (A) (A) (A) (A) (A) (A) (A) (A)
                 (A) (A) (A) (A) (A) (A) (A) (A) (A) (A) (A) (A)
                 (A) (A) (A) (A) (A) (A) (A) (A) (A) (A)
       Virtual   (A) (A) (A) (A) (A) (A) (A) (A) (A) (A) (A) (A)
                 (A) (A) (A) (A) (A) (A) (A) (A) (A) (A) (A) (A)
                 (A) (A) (A) (A) (A) (A) (A) (A) (A) (A) (A) (A)
                 (A) (A) (A) (A) (A) (A) (A) (A) (A) (A) (A) (A)
                 (A) (A) (A) (A) (A) (A) (A) (A) (A) (A) (A) (A)
                 (A) (A) (A) (A) (A) (A) (A) (A) (A) (A) (A) (A)
                 (A) (A) (A) (A) (A) (A) (A) (A) (A) (A) (A) (A)
                 (A) (A) (A) (A) (A) (A) (A) (A) (A) (A) (A) (A)
                 (A) (A) (A) (A) (A) (A) (A) (A) (A) (A) (A) (A)
                 (A) (A) (A) (A) (A) (A) (A) (A) (A) (A) (A) (A)
                 (A) (A) (A) (A) (A) (A) (A) (A) (A) (A) (A) (A)
                 (A) (A) (A) (A) (A) (A) (A) (A) (A) (A) (A) (A)
                 (A) (A) (A) (A) (A) (A) (A) (A) (A) (A) (A) (A)
                 (A) (A) (A) (A) (A) (A) (A) (A) (A) (A) (A) (A)
                 (A) (A) (A) (A) (A) (A) (A) (A) (A) (A) (A) (A)
                 (A) (A) (A) (A) (A) (A) (A) (A) (A) (A) (A) (A)
                 (A) (A) (A) (A) (A) (A) (A) (A) (A) (A) (A) (A)
                 (A) (A) (A) (A) (A) (A) (A) (A) (A) (A) (A) (A)
                 (A) (A) (A) (A) (A) (A) (A) (A) (A) (A) (A) (A)
                 (A) (A) (A) (A) (A) (A) (A) (A) (A) (A) (A) (A)
                 (A) (A) (A) (A) (A) (A) (A) (A) (A) (A) (A) (A)
                 (A) (A) (A) (A) (A) (A) (A) (A) (A) (A) (A) (A)
                 (A) (A) (A) (A) (A) (A) (A) (A) (A) (A) (A) (A)
                 (A) (A) (A) (A) (A) (A) (A) (A) (A) (A) (A) (A)
                 (A) (A) (A) (A) (A) (A) (A) (A) (A) (A) (A) (A)
                 (A) (A) (A) (A) (A) (A) (A) (A) (A) (A) (A) (A)
                 (A) (A) (A) (A) (A) (A) (A) (A) (A) (A) (A) (A)
                 (A) (A) (A) (A) (A) (A) (A) (A) (A) (A) (A) (A)
                 (A) (A) (A) (A) (A) (A) (A) (A) (A) (A) (A) (A)
                 (A) (A) (A) (A) (A) (A) (A) (A) (A) (A) (A) (A)
                 (A) (A) (A) (A) (A) (A) (A) (A) (A) (A) (A) (A)
                 (A) (A) (A) (A) (A) (A) (A) (A) (A) (A) (A) (A)
                 (A) (A) (A) (A) (A) (A) (A) (A) (A) (A) (A) (A)
                 (A) (A) (A) (A) (A) (A) (A) (A) (A) (A) (A) (A)
                 (A) (A) (A) (A) (A) (A) (A) (A) (A) (A) (A) (A)
                 (A) (A) (A) (A) (A) (A)
 The electronic state of the initial guess is 2-A.
 <S**2> of initial guess= 0.7770
 Leave Link  401 at Wed Aug  2 09:49:49 2006, MaxMem=  268435456 cpu:       5.2
 (Enter /home/konrad/system/software//g03/l502.exe)
 UHF open shell SCF:
 Requested convergence on RMS density matrix=1.00D-08 within 128 cycles.
 Requested convergence on MAX density matrix=1.00D-06.
 Requested convergence on             energy=1.00D-06.
 No special actions if energy rises.
 Using DIIS extrapolation, IDIIS=  1040.
 Integral symmetry usage will be decided dynamically.
      1038033 words used for storage of precomputed grid.
 IEnd=   2038909 IEndB=   2038909 NGot= 268435456 MDV= 266692500
 LenX= 266692500
 Fock matrices will be formed incrementally for  20 cycles.

 Cycle   1  Pass 1  IDiag  1:
 Petite list used in FoFDir.
 MinBra= 0 MaxBra= 2 Meth= 1.
 IRaf=       0 NMat=   1 IRICut=       1 DoRegI=T DoRafI=F ISym2E= 1 JSym2E=1.
 E= -1164.65536297779    
 DIIS: error= 3.29D-02 at cycle   1 NSaved=   1.
 NSaved= 1 IEnMin= 1 EnMin= -1164.65536297779     IErMin= 1 ErrMin= 3.29D-02
 ErrMax= 3.29D-02 EMaxC= 1.00D-01 BMatC= 3.68D+00 BMatP= 3.68D+00
 IDIUse=3 WtCom= 6.71D-01 WtEn= 3.29D-01
 Coeff-Com:  0.100D+01
 Coeff-En:   0.100D+01
 Coeff:      0.100D+01
 Gap=     0.447 Goal=   None    Shift=    0.000
 Gap=     0.474 Goal=   None    Shift=    0.000
 GapD=    0.447 DampG=2.000 DampE=0.500 DampFc=1.0000 IDamp=-1.
 RMSDP=7.74D-03 MaxDP=5.47D-01              OVMax= 4.80D-02

 Cycle   2  Pass 1  IDiag  1:
 RMSU=  7.70D-03    CP:  9.36D-01
 E= -1164.79942974442     Delta-E=       -0.144066766630 Rises=F Damp=F
 DIIS: error= 1.90D-03 at cycle   2 NSaved=   2.
 NSaved= 2 IEnMin= 2 EnMin= -1164.79942974442     IErMin= 2 ErrMin= 1.90D-03
 ErrMax= 1.90D-03 EMaxC= 1.00D-01 BMatC= 1.20D-02 BMatP= 3.68D+00
 IDIUse=3 WtCom= 9.81D-01 WtEn= 1.90D-02
 Coeff-Com: -0.617D-02 0.101D+01
 Coeff-En:   0.000D+00 0.100D+01
 Coeff:     -0.605D-02 0.101D+01
 Gap=     0.202 Goal=   None    Shift=    0.000
 Gap=     0.110 Goal=   None    Shift=    0.000
 RMSDP=4.85D-04 MaxDP=4.44D-02 DE=-1.44D-01 OVMax= 3.15D-02

 Cycle   3  Pass 1  IDiag  1:
 RMSU=  3.47D-04    CP:  9.35D-01  1.04D+00
 E= -1164.79431029350     Delta-E=        0.005119450919 Rises=F Damp=F
 DIIS: error= 3.86D-03 at cycle   3 NSaved=   3.
 NSaved= 3 IEnMin= 2 EnMin= -1164.79942974442     IErMin= 2 ErrMin= 1.90D-03
 ErrMax= 3.86D-03 EMaxC= 1.00D-01 BMatC= 3.98D-02 BMatP= 1.20D-02
 IDIUse=3 WtCom= 1.39D-01 WtEn= 8.61D-01
 Coeff-Com: -0.703D-02 0.658D+00 0.349D+00
 Coeff-En:   0.000D+00 0.729D+00 0.271D+00
 Coeff:     -0.975D-03 0.719D+00 0.282D+00
 Gap=     0.206 Goal=   None    Shift=    0.000
 Gap=     0.112 Goal=   None    Shift=    0.000
 RMSDP=1.92D-04 MaxDP=2.16D-02 DE= 5.12D-03 OVMax= 2.13D-02

 Cycle   4  Pass 1  IDiag  1:
 RMSU=  1.33D-04    CP:  9.34D-01  1.06D+00  7.31D-01
 E= -1164.80166289820     Delta-E=       -0.007352604700 Rises=F Damp=F
 DIIS: error= 7.90D-04 at cycle   4 NSaved=   4.
 NSaved= 4 IEnMin= 4 EnMin= -1164.80166289820     IErMin= 4 ErrMin= 7.90D-04
 ErrMax= 7.90D-04 EMaxC= 1.00D-01 BMatC= 1.05D-03 BMatP= 1.20D-02
 IDIUse=3 WtCom= 9.92D-01 WtEn= 7.90D-03
 Coeff-Com: -0.291D-02 0.250D+00 0.280D-01 0.725D+00
 Coeff-En:   0.000D+00 0.000D+00 0.000D+00 0.100D+01
 Coeff:     -0.289D-02 0.248D+00 0.278D-01 0.727D+00
 Gap=     0.205 Goal=   None    Shift=    0.000
 Gap=     0.113 Goal=   None    Shift=    0.000
 RMSDP=8.35D-05 MaxDP=8.64D-03 DE=-7.35D-03 OVMax= 2.45D-03

 Cycle   5  Pass 1  IDiag  1:
 RMSU=  3.71D-05    CP:  9.34D-01  1.07D+00  6.99D-01  1.30D+00
 E= -1164.80181006649     Delta-E=       -0.000147168291 Rises=F Damp=F
 DIIS: error= 2.82D-04 at cycle   5 NSaved=   5.
 NSaved= 5 IEnMin= 5 EnMin= -1164.80181006649     IErMin= 5 ErrMin= 2.82D-04
 ErrMax= 2.82D-04 EMaxC= 1.00D-01 BMatC= 2.27D-04 BMatP= 1.05D-03
 IDIUse=3 WtCom= 9.97D-01 WtEn= 2.82D-03
 Coeff-Com: -0.307D-03 0.122D-01-0.660D-01 0.507D+00 0.548D+00
 Coeff-En:   0.000D+00 0.000D+00 0.000D+00 0.121D+00 0.879D+00
 Coeff:     -0.306D-03 0.122D-01-0.658D-01 0.505D+00 0.549D+00
 Gap=     0.206 Goal=   None    Shift=    0.000
 Gap=     0.112 Goal=   None    Shift=    0.000
 RMSDP=1.71D-05 MaxDP=2.01D-03 DE=-1.47D-04 OVMax= 2.40D-03

 Cycle   6  Pass 1  IDiag  1:
 RMSU=  8.59D-06    CP:  9.34D-01  1.07D+00  7.13D-01  1.32D+00  6.45D-01
 E= -1164.80185432779     Delta-E=       -0.000044261294 Rises=F Damp=F
 DIIS: error= 4.88D-05 at cycle   6 NSaved=   6.
 NSaved= 6 IEnMin= 6 EnMin= -1164.80185432779     IErMin= 6 ErrMin= 4.88D-05
 ErrMax= 4.88D-05 EMaxC= 1.00D-01 BMatC= 8.35D-06 BMatP= 2.27D-04
 IDIUse=1 WtCom= 1.00D+00 WtEn= 0.00D+00
 Coeff-Com: -0.247D-04-0.539D-02-0.349D-01 0.223D+00 0.285D+00 0.532D+00
 Coeff:     -0.247D-04-0.539D-02-0.349D-01 0.223D+00 0.285D+00 0.532D+00
 Gap=     0.206 Goal=   None    Shift=    0.000
 Gap=     0.112 Goal=   None    Shift=    0.000
 RMSDP=4.10D-06 MaxDP=3.25D-04 DE=-4.43D-05 OVMax= 3.31D-04

 Cycle   7  Pass 1  IDiag  1:
 RMSU=  3.01D-06    CP:  9.34D-01  1.07D+00  7.16D-01  1.32D+00  6.40D-01
                    CP:  7.09D-01
 E= -1164.80185589778     Delta-E=       -0.000001569992 Rises=F Damp=F
 DIIS: error= 2.60D-05 at cycle   7 NSaved=   7.
 NSaved= 7 IEnMin= 7 EnMin= -1164.80185589778     IErMin= 7 ErrMin= 2.60D-05
 ErrMax= 2.60D-05 EMaxC= 1.00D-01 BMatC= 1.25D-06 BMatP= 8.35D-06
 IDIUse=1 WtCom= 1.00D+00 WtEn= 0.00D+00
 Coeff-Com:  0.249D-04-0.425D-02-0.980D-02 0.530D-01 0.850D-01 0.304D+00
 Coeff-Com:  0.572D+00
 Coeff:      0.249D-04-0.425D-02-0.980D-02 0.530D-01 0.850D-01 0.304D+00
 Coeff:      0.572D+00
 Gap=     0.206 Goal=   None    Shift=    0.000
 Gap=     0.112 Goal=   None    Shift=    0.000
 RMSDP=2.29D-06 MaxDP=1.73D-04 DE=-1.57D-06 OVMax= 1.74D-04

 Cycle   8  Pass 1  IDiag  1:
 RMSU=  1.05D-06    CP:  9.34D-01  1.07D+00  7.17D-01  1.33D+00  6.48D-01
                    CP:  7.41D-01  7.19D-01
 E= -1164.80185612869     Delta-E=       -0.000000230912 Rises=F Damp=F
 DIIS: error= 1.01D-05 at cycle   8 NSaved=   8.
 NSaved= 8 IEnMin= 8 EnMin= -1164.80185612869     IErMin= 8 ErrMin= 1.01D-05
 ErrMax= 1.01D-05 EMaxC= 1.00D-01 BMatC= 2.03D-07 BMatP= 1.25D-06
 IDIUse=1 WtCom= 1.00D+00 WtEn= 0.00D+00
 Coeff-Com:  0.169D-04-0.189D-02-0.135D-02 0.394D-02 0.178D-01 0.119D+00
 Coeff-Com:  0.339D+00 0.524D+00
 Coeff:      0.169D-04-0.189D-02-0.135D-02 0.394D-02 0.178D-01 0.119D+00
 Coeff:      0.339D+00 0.524D+00
 Gap=     0.206 Goal=   None    Shift=    0.000
 Gap=     0.112 Goal=   None    Shift=    0.000
 RMSDP=6.15D-07 MaxDP=6.31D-05 DE=-2.31D-07 OVMax= 8.94D-05

 Cycle   9  Pass 1  IDiag  1:
 RMSU=  5.27D-07    CP:  9.34D-01  1.07D+00  7.17D-01  1.33D+00  6.51D-01
                    CP:  7.45D-01  7.77D-01  8.58D-01
 E= -1164.80185616948     Delta-E=       -0.000000040786 Rises=F Damp=F
 DIIS: error= 4.46D-06 at cycle   9 NSaved=   9.
 NSaved= 9 IEnMin= 9 EnMin= -1164.80185616948     IErMin= 9 ErrMin= 4.46D-06
 ErrMax= 4.46D-06 EMaxC= 1.00D-01 BMatC= 5.07D-08 BMatP= 2.03D-07
 IDIUse=1 WtCom= 1.00D+00 WtEn= 0.00D+00
 Coeff-Com:  0.593D-05-0.369D-03 0.148D-02-0.984D-02-0.612D-02 0.935D-02
 Coeff-Com:  0.959D-01 0.351D+00 0.559D+00
 Coeff:      0.593D-05-0.369D-03 0.148D-02-0.984D-02-0.612D-02 0.935D-02
 Coeff:      0.959D-01 0.351D+00 0.559D+00
 Gap=     0.206 Goal=   None    Shift=    0.000
 Gap=     0.112 Goal=   None    Shift=    0.000
 RMSDP=2.85D-07 MaxDP=2.46D-05 DE=-4.08D-08 OVMax= 3.94D-05

 Cycle  10  Pass 1  IDiag  1:
 RMSU=  2.09D-07    CP:  9.34D-01  1.07D+00  7.17D-01  1.33D+00  6.51D-01
                    CP:  7.56D-01  8.05D-01  9.51D-01  7.92D-01
 E= -1164.80185618422     Delta-E=       -0.000000014739 Rises=F Damp=F
 DIIS: error= 2.96D-06 at cycle  10 NSaved=  10.
 NSaved=10 IEnMin=10 EnMin= -1164.80185618422     IErMin=10 ErrMin= 2.96D-06
 ErrMax= 2.96D-06 EMaxC= 1.00D-01 BMatC= 5.33D-09 BMatP= 5.07D-08
 IDIUse=1 WtCom= 1.00D+00 WtEn= 0.00D+00
 Coeff-Com: -0.232D-05 0.370D-03 0.934D-03-0.412D-02-0.464D-02-0.253D-01
 Coeff-Com: -0.488D-01-0.255D-01 0.112D+00 0.995D+00
 Coeff:     -0.232D-05 0.370D-03 0.934D-03-0.412D-02-0.464D-02-0.253D-01
 Coeff:     -0.488D-01-0.255D-01 0.112D+00 0.995D+00
 Gap=     0.206 Goal=   None    Shift=    0.000
 Gap=     0.112 Goal=   None    Shift=    0.000
 RMSDP=2.54D-07 MaxDP=2.72D-05 DE=-1.47D-08 OVMax= 4.36D-05

 Cycle  11  Pass 1  IDiag  1:
 RMSU=  1.25D-07    CP:  9.34D-01  1.07D+00  7.17D-01  1.33D+00  6.52D-01
                    CP:  7.58D-01  8.11D-01  1.03D+00  9.63D-01  1.44D+00
 E= -1164.80185618870     Delta-E=       -0.000000004482 Rises=F Damp=F
 DIIS: error= 2.11D-06 at cycle  11 NSaved=  11.
 NSaved=11 IEnMin=11 EnMin= -1164.80185618870     IErMin=11 ErrMin= 2.11D-06
 ErrMax= 2.11D-06 EMaxC= 1.00D-01 BMatC= 2.38D-09 BMatP= 5.33D-09
 IDIUse=1 WtCom= 1.00D+00 WtEn= 0.00D+00
 Coeff-Com: -0.348D-05 0.330D-03 0.309D-04 0.119D-02 0.129D-03-0.185D-01
 Coeff-Com: -0.634D-01-0.149D+00-0.151D+00 0.601D+00 0.778D+00
 Coeff:     -0.348D-05 0.330D-03 0.309D-04 0.119D-02 0.129D-03-0.185D-01
 Coeff:     -0.634D-01-0.149D+00-0.151D+00 0.601D+00 0.778D+00
 Gap=     0.206 Goal=   None    Shift=    0.000
 Gap=     0.112 Goal=   None    Shift=    0.000
 RMSDP=1.64D-07 MaxDP=2.09D-05 DE=-4.48D-09 OVMax= 2.87D-05

 Cycle  12  Pass 1  IDiag  1:
 RMSU=  5.54D-08    CP:  9.34D-01  1.07D+00  7.17D-01  1.33D+00  6.53D-01
                    CP:  7.56D-01  8.19D-01  1.08D+00  1.07D+00  1.90D+00
                    CP:  1.09D+00
 E= -1164.80185619016     Delta-E=       -0.000000001460 Rises=F Damp=F
 DIIS: error= 8.33D-07 at cycle  12 NSaved=  12.
 NSaved=12 IEnMin=12 EnMin= -1164.80185619016     IErMin=12 ErrMin= 8.33D-07
 ErrMax= 8.33D-07 EMaxC= 1.00D-01 BMatC= 3.38D-10 BMatP= 2.38D-09
 IDIUse=1 WtCom= 1.00D+00 WtEn= 0.00D+00
 Coeff-Com: -0.136D-05 0.995D-04-0.193D-03 0.159D-02 0.121D-02-0.447D-02
 Coeff-Com: -0.232D-01-0.748D-01-0.104D+00 0.124D+00 0.394D+00 0.686D+00
 Coeff:     -0.136D-05 0.995D-04-0.193D-03 0.159D-02 0.121D-02-0.447D-02
 Coeff:     -0.232D-01-0.748D-01-0.104D+00 0.124D+00 0.394D+00 0.686D+00
 Gap=     0.206 Goal=   None    Shift=    0.000
 Gap=     0.112 Goal=   None    Shift=    0.000
 RMSDP=4.63D-08 MaxDP=7.11D-06 DE=-1.46D-09 OVMax= 1.22D-05

 Cycle  13  Pass 1  IDiag  1:
 RMSU=  1.98D-08    CP:  9.34D-01  1.07D+00  7.17D-01  1.33D+00  6.53D-01
                    CP:  7.57D-01  8.20D-01  1.09D+00  1.10D+00  2.04D+00
                    CP:  1.26D+00  8.06D-01
 E= -1164.80185619040     Delta-E=       -0.000000000236 Rises=F Damp=F
 DIIS: error= 4.10D-07 at cycle  13 NSaved=  13.
 NSaved=13 IEnMin=13 EnMin= -1164.80185619040     IErMin=13 ErrMin= 4.10D-07
 ErrMax= 4.10D-07 EMaxC= 1.00D-01 BMatC= 9.56D-11 BMatP= 3.38D-10
 IDIUse=1 WtCom= 1.00D+00 WtEn= 0.00D+00
 Coeff-Com: -0.506D-06 0.320D-04-0.121D-03 0.847D-03 0.688D-03-0.926D-03
 Coeff-Com: -0.766D-02-0.302D-01-0.466D-01 0.118D-01 0.149D+00 0.426D+00
 Coeff-Com:  0.498D+00
 Coeff:     -0.506D-06 0.320D-04-0.121D-03 0.847D-03 0.688D-03-0.926D-03
 Coeff:     -0.766D-02-0.302D-01-0.466D-01 0.118D-01 0.149D+00 0.426D+00
 Coeff:      0.498D+00
 Gap=     0.206 Goal=   None    Shift=    0.000
 Gap=     0.112 Goal=   None    Shift=    0.000
 RMSDP=1.46D-08 MaxDP=2.13D-06 DE=-2.36D-10 OVMax= 2.86D-06

 Cycle  14  Pass 1  IDiag  1:
 RMSU=  7.82D-09    CP:  9.34D-01  1.07D+00  7.17D-01  1.33D+00  6.53D-01
                    CP:  7.56D-01  8.20D-01  1.09D+00  1.10D+00  2.07D+00
                    CP:  1.27D+00  8.83D-01  6.94D-01
 E= -1164.80185619044     Delta-E=       -0.000000000044 Rises=F Damp=F
 DIIS: error= 1.03D-07 at cycle  14 NSaved=  14.
 NSaved=14 IEnMin=14 EnMin= -1164.80185619044     IErMin=14 ErrMin= 1.03D-07
 ErrMax= 1.03D-07 EMaxC= 1.00D-01 BMatC= 7.19D-12 BMatP= 9.56D-11
 IDIUse=1 WtCom= 1.00D+00 WtEn= 0.00D+00
 Coeff-Com:  0.103D-06-0.104D-04-0.133D-04 0.112D-04-0.529D-05 0.555D-03
 Coeff-Com:  0.179D-02 0.342D-02 0.441D-02-0.177D-01-0.274D-01 0.227D-01
 Coeff-Com:  0.182D+00 0.830D+00
 Coeff:      0.103D-06-0.104D-04-0.133D-04 0.112D-04-0.529D-05 0.555D-03
 Coeff:      0.179D-02 0.342D-02 0.441D-02-0.177D-01-0.274D-01 0.227D-01
 Coeff:      0.182D+00 0.830D+00
 Gap=     0.206 Goal=   None    Shift=    0.000
 Gap=     0.112 Goal=   None    Shift=    0.000
 RMSDP=5.81D-09 MaxDP=7.85D-07 DE=-4.37D-11 OVMax= 1.14D-06

 Error on total polarization charges =  0.01776
 SCF Done:  E(UB+HF-LYP) =  -1164.80185619     A.U. after   14 cycles
             Convg  =    0.5808D-08             -V/T =  2.0070
             S**2   =   0.7760
 KE= 1.156759582149D+03 PE=-6.246957893474D+03 EE= 2.167940639005D+03
 --------------------------------------------------------------------
 Variational PCM results
 =======================
 <psi(f)|   H    |psi(f)>                     (a.u.) =   -1164.706344
 <psi(f)|H+V(f)/2|psi(f)>                     (a.u.) =   -1164.801856
 Total free energy in solution:
  with all non electrostatic terms            (a.u.) =   -1164.772823
 --------------------------------------------------------------------
 (Polarized solute)-Solvent               (kcal/mol) =     -59.93
 --------------------------------------------------------------------
 Cavitation energy                        (kcal/mol) =      47.93
 Dispersion energy                        (kcal/mol) =     -37.90
 Repulsion energy                         (kcal/mol) =       8.19
 Total non electrostatic                  (kcal/mol) =      18.22
 --------------------------------------------------------------------
 Partition over spheres:
 Sphere  on Atom  Surface  Charge   GEl     GCav    GDR
    1      O1       5.50   0.083   -1.49    1.93   -0.83
    2      C2       0.78   0.007   -0.08    0.91   -0.04
    3      O3       4.99   0.061   -0.79    1.51   -0.63
    4      C4       1.39  -0.087   -4.96    0.59    0.07
    5      N5       3.79  -0.033   -0.80    2.00   -0.47
    6      C10     13.27  -0.094   -2.54    2.05   -1.77
    7      C13      0.82  -0.001   -0.01    0.34   -0.07
    8      C14      8.02   0.003   -0.03    2.03   -0.87
    9      C15      8.97  -0.003   -0.13    2.14   -1.06
   10      C16      7.87  -0.004    0.02    1.94   -1.02
   11      C18      8.28  -0.009   -0.15    1.91   -1.08
   12      C20      3.11  -0.003    0.00    0.75   -0.36
   13      O23      5.42   0.039   -0.47    1.84   -0.91
   14      O25     30.15  -0.230  -11.50    4.02   -3.27
   15      O28     28.76   0.093   -4.43    4.09   -2.78
   16      O31     23.15  -0.078   -4.25    3.61   -2.45
   17      O34     27.66  -0.041   -4.43    3.73   -2.99
   18      O37     34.34   0.156   -5.61    4.23   -2.98
   19      O40     33.81   0.104   -5.81    4.18   -3.09
   20      O43     33.59   0.097   -5.26    4.14   -3.11
 Added spheres:   104.85  -0.078   -7.23    0.00    0.00
 --------------------------------------------------------------------
 After PCM corrections, the SCF energy is  -1164.80185619     a.u.
 --------------------------------------------------------------------
 Annihilation of the first spin contaminant:
 S**2 before annihilation     0.7760,   after     0.7505
 Leave Link  502 at Wed Aug  2 10:57:57 2006, MaxMem=  268435456 cpu:    4076.8
 (Enter /home/konrad/system/software//g03/l601.exe)
 Copying SCF densities to generalized density rwf, ISCF=1 IROHF=0.

 **********************************************************************

            Population analysis using the SCF density.

 **********************************************************************

 Orbital symmetries:
 Alpha Orbitals:
       Occupied  (A) (A) (A) (A) (A) (A) (A) (A) (A) (A) (A) (A)
                 (A) (A) (A) (A) (A) (A) (A) (A) (A) (A) (A) (A)
                 (A) (A) (A) (A) (A) (A) (A) (A) (A) (A) (A) (A)
                 (A) (A) (A) (A) (A) (A) (A) (A) (A) (A) (A) (A)
                 (A) (A) (A) (A) (A) (A) (A) (A) (A) (A) (A) (A)
                 (A) (A) (A) (A) (A) (A) (A) (A) (A) (A) (A) (A)
                 (A) (A) (A) (A) (A) (A) (A) (A) (A) (A) (A)
       Virtual   (A) (A) (A) (A) (A) (A) (A) (A) (A) (A) (A) (A)
                 (A) (A) (A) (A) (A) (A) (A) (A) (A) (A) (A) (A)
                 (A) (A) (A) (A) (A) (A) (A) (A) (A) (A) (A) (A)
                 (A) (A) (A) (A) (A) (A) (A) (A) (A) (A) (A) (A)
                 (A) (A) (A) (A) (A) (A) (A) (A) (A) (A) (A) (A)
                 (A) (A) (A) (A) (A) (A) (A) (A) (A) (A) (A) (A)
                 (A) (A) (A) (A) (A) (A) (A) (A) (A) (A) (A) (A)
                 (A) (A) (A) (A) (A) (A) (A) (A) (A) (A) (A) (A)
                 (A) (A) (A) (A) (A) (A) (A) (A) (A) (A) (A) (A)
                 (A) (A) (A) (A) (A) (A) (A) (A) (A) (A) (A) (A)
                 (A) (A) (A) (A) (A) (A) (A) (A) (A) (A) (A) (A)
                 (A) (A) (A) (A) (A) (A) (A) (A) (A) (A) (A) (A)
                 (A) (A) (A) (A) (A) (A) (A) (A) (A) (A) (A) (A)
                 (A) (A) (A) (A) (A) (A) (A) (A) (A) (A) (A) (A)
                 (A) (A) (A) (A) (A) (A) (A) (A) (A) (A) (A) (A)
                 (A) (A) (A) (A) (A) (A) (A) (A) (A) (A) (A) (A)
                 (A) (A) (A) (A) (A) (A) (A) (A) (A) (A) (A) (A)
                 (A) (A) (A) (A) (A) (A) (A) (A) (A) (A) (A) (A)
                 (A) (A) (A) (A) (A) (A) (A) (A) (A) (A) (A) (A)
                 (A) (A) (A) (A) (A) (A) (A) (A) (A) (A) (A) (A)
                 (A) (A) (A) (A) (A) (A) (A) (A) (A) (A) (A) (A)
                 (A) (A) (A) (A) (A) (A) (A) (A) (A) (A) (A) (A)
                 (A) (A) (A) (A) (A) (A) (A) (A) (A) (A) (A) (A)
                 (A) (A) (A) (A) (A) (A) (A) (A) (A) (A) (A) (A)
                 (A) (A) (A) (A) (A) (A) (A) (A) (A) (A) (A) (A)
                 (A) (A) (A) (A) (A) (A) (A) (A) (A) (A) (A) (A)
                 (A) (A) (A) (A) (A) (A) (A) (A) (A) (A) (A) (A)
                 (A) (A) (A) (A) (A) (A) (A) (A) (A) (A) (A) (A)
                 (A) (A) (A) (A) (A) (A) (A) (A) (A) (A) (A) (A)
                 (A) (A) (A) (A) (A) (A) (A) (A) (A) (A) (A) (A)
                 (A) (A) (A) (A) (A) (A) (A) (A) (A) (A) (A) (A)
                 (A) (A) (A) (A) (A) (A) (A) (A) (A) (A) (A) (A)
                 (A) (A) (A) (A) (A) (A) (A) (A) (A) (A) (A) (A)
                 (A) (A) (A) (A) (A) (A) (A) (A) (A) (A) (A) (A)
                 (A) (A) (A) (A) (A) (A) (A) (A) (A) (A) (A) (A)
                 (A) (A) (A) (A) (A)
 Beta  Orbitals:
       Occupied  (A) (A) (A) (A) (A) (A) (A) (A) (A) (A) (A) (A)
                 (A) (A) (A) (A) (A) (A) (A) (A) (A) (A) (A) (A)
                 (A) (A) (A) (A) (A) (A) (A) (A) (A) (A) (A) (A)
                 (A) (A) (A) (A) (A) (A) (A) (A) (A) (A) (A) (A)
                 (A) (A) (A) (A) (A) (A) (A) (A) (A) (A) (A) (A)
                 (A) (A) (A) (A) (A) (A) (A) (A) (A) (A) (A) (A)
                 (A) (A) (A) (A) (A) (A) (A) (A) (A) (A)
       Virtual   (A) (A) (A) (A) (A) (A) (A) (A) (A) (A) (A) (A)
                 (A) (A) (A) (A) (A) (A) (A) (A) (A) (A) (A) (A)
                 (A) (A) (A) (A) (A) (A) (A) (A) (A) (A) (A) (A)
                 (A) (A) (A) (A) (A) (A) (A) (A) (A) (A) (A) (A)
                 (A) (A) (A) (A) (A) (A) (A) (A) (A) (A) (A) (A)
                 (A) (A) (A) (A) (A) (A) (A) (A) (A) (A) (A) (A)
                 (A) (A) (A) (A) (A) (A) (A) (A) (A) (A) (A) (A)
                 (A) (A) (A) (A) (A) (A) (A) (A) (A) (A) (A) (A)
                 (A) (A) (A) (A) (A) (A) (A) (A) (A) (A) (A) (A)
                 (A) (A) (A) (A) (A) (A) (A) (A) (A) (A) (A) (A)
                 (A) (A) (A) (A) (A) (A) (A) (A) (A) (A) (A) (A)
                 (A) (A) (A) (A) (A) (A) (A) (A) (A) (A) (A) (A)
                 (A) (A) (A) (A) (A) (A) (A) (A) (A) (A) (A) (A)
                 (A) (A) (A) (A) (A) (A) (A) (A) (A) (A) (A) (A)
                 (A) (A) (A) (A) (A) (A) (A) (A) (A) (A) (A) (A)
                 (A) (A) (A) (A) (A) (A) (A) (A) (A) (A) (A) (A)
                 (A) (A) (A) (A) (A) (A) (A) (A) (A) (A) (A) (A)
                 (A) (A) (A) (A) (A) (A) (A) (A) (A) (A) (A) (A)
                 (A) (A) (A) (A) (A) (A) (A) (A) (A) (A) (A) (A)
                 (A) (A) (A) (A) (A) (A) (A) (A) (A) (A) (A) (A)
                 (A) (A) (A) (A) (A) (A) (A) (A) (A) (A) (A) (A)
                 (A) (A) (A) (A) (A) (A) (A) (A) (A) (A) (A) (A)
                 (A) (A) (A) (A) (A) (A) (A) (A) (A) (A) (A) (A)
                 (A) (A) (A) (A) (A) (A) (A) (A) (A) (A) (A) (A)
                 (A) (A) (A) (A) (A) (A) (A) (A) (A) (A) (A) (A)
                 (A) (A) (A) (A) (A) (A) (A) (A) (A) (A) (A) (A)
                 (A) (A) (A) (A) (A) (A) (A) (A) (A) (A) (A) (A)
                 (A) (A) (A) (A) (A) (A) (A) (A) (A) (A) (A) (A)
                 (A) (A) (A) (A) (A) (A) (A) (A) (A) (A) (A) (A)
                 (A) (A) (A) (A) (A) (A) (A) (A) (A) (A) (A) (A)
                 (A) (A) (A) (A) (A) (A) (A) (A) (A) (A) (A) (A)
                 (A) (A) (A) (A) (A) (A) (A) (A) (A) (A) (A) (A)
                 (A) (A) (A) (A) (A) (A) (A) (A) (A) (A) (A) (A)
                 (A) (A) (A) (A) (A) (A) (A) (A) (A) (A) (A) (A)
                 (A) (A) (A) (A) (A) (A) (A) (A) (A) (A) (A) (A)
                 (A) (A) (A) (A) (A) (A)
 The electronic state is 2-A.
 Alpha  occ. eigenvalues --  -19.16740 -19.16297 -19.15243 -19.14756 -19.12735
 Alpha  occ. eigenvalues --  -19.12596 -19.12551 -19.12240 -19.12201 -19.12092
 Alpha  occ. eigenvalues --  -14.40627 -10.31372 -10.28734 -10.25618 -10.24637
 Alpha  occ. eigenvalues --  -10.22205 -10.21956 -10.21893 -10.21522 -10.21313
 Alpha  occ. eigenvalues --   -1.06374  -1.05032  -1.02795  -1.01573  -1.01285
 Alpha  occ. eigenvalues --   -0.98918  -0.98835  -0.98762  -0.98322  -0.97072
 Alpha  occ. eigenvalues --   -0.96607  -0.87645  -0.79786  -0.77493  -0.73479
 Alpha  occ. eigenvalues --   -0.66005  -0.63502  -0.60160  -0.57221  -0.55795
 Alpha  occ. eigenvalues --   -0.54704  -0.54241  -0.52965  -0.52280  -0.51996
 Alpha  occ. eigenvalues --   -0.51710  -0.51085  -0.50863  -0.50558  -0.49109
 Alpha  occ. eigenvalues --   -0.47758  -0.46848  -0.45426  -0.44951  -0.44434
 Alpha  occ. eigenvalues --   -0.44019  -0.43443  -0.41851  -0.41351  -0.40883
 Alpha  occ. eigenvalues --   -0.40428  -0.39690  -0.39196  -0.37995  -0.37478
 Alpha  occ. eigenvalues --   -0.37313  -0.37001  -0.36664  -0.36567  -0.34996
 Alpha  occ. eigenvalues --   -0.33664  -0.32567  -0.32184  -0.30067  -0.29801
 Alpha  occ. eigenvalues --   -0.29716  -0.29209  -0.28912  -0.28576  -0.28560
 Alpha  occ. eigenvalues --   -0.27546  -0.26903  -0.23842
 Alpha virt. eigenvalues --   -0.03283  -0.02697  -0.00015   0.01071   0.02846
 Alpha virt. eigenvalues --    0.03268   0.04435   0.05083   0.05624   0.06088
 Alpha virt. eigenvalues --    0.07922   0.08193   0.08366   0.09816   0.10400
 Alpha virt. eigenvalues --    0.11669   0.12169   0.12497   0.13752   0.14126
 Alpha virt. eigenvalues --    0.14547   0.16341   0.16680   0.17408   0.17654
 Alpha virt. eigenvalues --    0.17828   0.18408   0.19015   0.19472   0.19888
 Alpha virt. eigenvalues --    0.20357   0.21487   0.21844   0.21945   0.22199
 Alpha virt. eigenvalues --    0.22424   0.22822   0.23382   0.23948   0.24333
 Alpha virt. eigenvalues --    0.25075   0.25384   0.25698   0.26260   0.27103
 Alpha virt. eigenvalues --    0.27631   0.27949   0.28092   0.29249   0.29813
 Alpha virt. eigenvalues --    0.30097   0.31065   0.31837   0.32678   0.32728
 Alpha virt. eigenvalues --    0.34070   0.34985   0.35814   0.36897   0.37519
 Alpha virt. eigenvalues --    0.37882   0.39187   0.40028   0.41261   0.41862
 Alpha virt. eigenvalues --    0.42044   0.43292   0.44702   0.45206   0.45851
 Alpha virt. eigenvalues --    0.46127   0.46467   0.47008   0.48122   0.49350
 Alpha virt. eigenvalues --    0.50388   0.51593   0.51795   0.53016   0.53802
 Alpha virt. eigenvalues --    0.54532   0.56583   0.57471   0.58537   0.59574
 Alpha virt. eigenvalues --    0.60800   0.61354   0.61530   0.63448   0.63815
 Alpha virt. eigenvalues --    0.64709   0.64900   0.65022   0.65688   0.66989
 Alpha virt. eigenvalues --    0.67317   0.67745   0.68162   0.70071   0.70284
 Alpha virt. eigenvalues --    0.70646   0.72447   0.72953   0.73571   0.74232
 Alpha virt. eigenvalues --    0.75071   0.75591   0.77263   0.78541   0.79361
 Alpha virt. eigenvalues --    0.80752   0.81118   0.81811   0.82921   0.84523
 Alpha virt. eigenvalues --    0.85383   0.85920   0.86412   0.86835   0.87542
 Alpha virt. eigenvalues --    0.87595   0.88213   0.88731   0.89763   0.89980
 Alpha virt. eigenvalues --    0.91011   0.91499   0.92231   0.92970   0.93502
 Alpha virt. eigenvalues --    0.93985   0.94229   0.95324   0.95933   0.96544
 Alpha virt. eigenvalues --    0.97145   0.98151   0.98553   0.98886   1.00097
 Alpha virt. eigenvalues --    1.01022   1.01335   1.02314   1.02516   1.02727
 Alpha virt. eigenvalues --    1.03676   1.04074   1.04158   1.04763   1.05711
 Alpha virt. eigenvalues --    1.06755   1.07282   1.08789   1.09809   1.10977
 Alpha virt. eigenvalues --    1.11515   1.12108   1.13521   1.13614   1.15700
 Alpha virt. eigenvalues --    1.16900   1.19291   1.20741   1.21346   1.22883
 Alpha virt. eigenvalues --    1.23308   1.23996   1.24508   1.25072   1.26411
 Alpha virt. eigenvalues --    1.26920   1.27293   1.29600   1.29718   1.31112
 Alpha virt. eigenvalues --    1.32120   1.33187   1.34453   1.35271   1.36119
 Alpha virt. eigenvalues --    1.37339   1.38532   1.38889   1.40034   1.40784
 Alpha virt. eigenvalues --    1.41581   1.42425   1.42778   1.43650   1.44530
 Alpha virt. eigenvalues --    1.44828   1.45888   1.47664   1.48171   1.48618
 Alpha virt. eigenvalues --    1.49565   1.50041   1.51919   1.52545   1.53972
 Alpha virt. eigenvalues --    1.54418   1.55413   1.56429   1.56798   1.58120
 Alpha virt. eigenvalues --    1.58662   1.58946   1.60658   1.61919   1.63202
 Alpha virt. eigenvalues --    1.64001   1.64754   1.65116   1.66000   1.66180
 Alpha virt. eigenvalues --    1.66660   1.67211   1.67597   1.67722   1.69214
 Alpha virt. eigenvalues --    1.70348   1.71468   1.72165   1.72306   1.73141
 Alpha virt. eigenvalues --    1.73903   1.75133   1.76074   1.76434   1.76927
 Alpha virt. eigenvalues --    1.78892   1.80365   1.81398   1.83828   1.85466
 Alpha virt. eigenvalues --    1.88611   1.89580   1.90208   1.93265   1.95787
 Alpha virt. eigenvalues --    1.97501   1.99194   2.00363   2.02232   2.03066
 Alpha virt. eigenvalues --    2.05391   2.09635   2.10810   2.12092   2.12338
 Alpha virt. eigenvalues --    2.13356   2.13751   2.14937   2.15047   2.15788
 Alpha virt. eigenvalues --    2.16139   2.16289   2.16921   2.17634   2.18024
 Alpha virt. eigenvalues --    2.19282   2.21660   2.23407   2.23801   2.29282
 Alpha virt. eigenvalues --    2.31687   2.32072   2.33820   2.37889   2.39458
 Alpha virt. eigenvalues --    2.42197   2.45014   2.45928   2.49873   2.51305
 Alpha virt. eigenvalues --    2.52890   2.54738   2.56171   2.57599   2.59848
 Alpha virt. eigenvalues --    2.63219   2.64644   2.65022   2.68134   2.70463
 Alpha virt. eigenvalues --    2.71586   2.74670   2.76162   2.77638   2.78609
 Alpha virt. eigenvalues --    2.79255   2.82341   2.89914   2.90941   2.91388
 Alpha virt. eigenvalues --    2.91630   2.91701   2.91969   2.92194   2.94890
 Alpha virt. eigenvalues --    2.95343   2.95950   2.96420   2.96470   2.97138
 Alpha virt. eigenvalues --    2.98565   2.98970   3.01172   3.08816   3.10236
 Alpha virt. eigenvalues --    3.11118   3.12022   3.12186   3.12469   3.12743
 Alpha virt. eigenvalues --    3.12979   3.17263   3.21141   3.30485   3.33219
 Alpha virt. eigenvalues --    3.34484   3.35113   3.37362   3.37975   3.38270
 Alpha virt. eigenvalues --    3.38657   3.39549   3.42364   3.47747   3.51065
 Alpha virt. eigenvalues --    3.52052   3.54743   3.55323   3.55829   3.57101
 Alpha virt. eigenvalues --    3.57306   3.58744   4.86020   4.90342   4.90840
 Alpha virt. eigenvalues --    4.91304   4.92273   4.93025   4.96731   4.99200
 Alpha virt. eigenvalues --    5.00331   5.01035   5.02128   5.02389   5.05674
 Alpha virt. eigenvalues --    5.06242   5.06721   5.07456   5.08159   5.11241
 Alpha virt. eigenvalues --    5.15865   5.17325   5.21993   5.22932   5.29789
 Alpha virt. eigenvalues --    5.35311   5.37688   5.40316   5.42838   5.44785
 Alpha virt. eigenvalues --    5.57623   5.63187   5.68565   5.77708   6.08399
 Alpha virt. eigenvalues --    7.37118   8.78480   8.83413   8.83623   8.85531
 Alpha virt. eigenvalues --    8.86859   8.87926   8.89372   9.04946   9.14711
 Alpha virt. eigenvalues --    9.25798  29.60690  29.64423  29.83991  29.90944
 Alpha virt. eigenvalues --   29.94779  30.04945  30.08802  30.19093  30.38813
 Alpha virt. eigenvalues --   36.46028  36.50040  36.50412  36.50638  36.51595
 Alpha virt. eigenvalues --   36.52471  36.54904  36.55899  36.57234  36.57878
 Alpha virt. eigenvalues --   36.59838  36.60902  36.61886  36.64575  36.65579
 Alpha virt. eigenvalues --   36.66149  36.67756  36.78119  36.79023  36.80556
 Alpha virt. eigenvalues --   36.88124  36.91274  36.93646  37.02121  41.30382
 Alpha virt. eigenvalues --   53.32686  53.37661  53.38012  53.39476  53.40805
 Alpha virt. eigenvalues --   53.41555  53.43401  53.57503  53.67607  53.78579
  Beta  occ. eigenvalues --  -19.16740 -19.15380 -19.15243 -19.14755 -19.12738
  Beta  occ. eigenvalues --  -19.12599 -19.12551 -19.12232 -19.12189 -19.12092
  Beta  occ. eigenvalues --  -14.40629 -10.31374 -10.28738 -10.25556 -10.24066
  Beta  occ. eigenvalues --  -10.22125 -10.21843 -10.21688 -10.21570 -10.21345
  Beta  occ. eigenvalues --   -1.06355  -1.03353  -1.02793  -1.01572  -1.01280
  Beta  occ. eigenvalues --   -0.98922  -0.98832  -0.98748  -0.98320  -0.97051
  Beta  occ. eigenvalues --   -0.96588  -0.86907  -0.79240  -0.77171  -0.72671
  Beta  occ. eigenvalues --   -0.65779  -0.63094  -0.59725  -0.57155  -0.55726
  Beta  occ. eigenvalues --   -0.54695  -0.54240  -0.52961  -0.52212  -0.51771
  Beta  occ. eigenvalues --   -0.51626  -0.51008  -0.50834  -0.50460  -0.48945
  Beta  occ. eigenvalues --   -0.47509  -0.46666  -0.45248  -0.44685  -0.44325
  Beta  occ. eigenvalues --   -0.43443  -0.41683  -0.41485  -0.41052  -0.40340
  Beta  occ. eigenvalues --   -0.40301  -0.39461  -0.39054  -0.37915  -0.37411
  Beta  occ. eigenvalues --   -0.37287  -0.36927  -0.36517  -0.36279  -0.33652
  Beta  occ. eigenvalues --   -0.32601  -0.32480  -0.32092  -0.29922  -0.29784
  Beta  occ. eigenvalues --   -0.29708  -0.29203  -0.28809  -0.27912  -0.27894
  Beta  occ. eigenvalues --   -0.27323  -0.26689
  Beta virt. eigenvalues --   -0.15444  -0.02019  -0.00581   0.00111   0.01256
  Beta virt. eigenvalues --    0.02846   0.03383   0.04504   0.05129   0.05659
[...]
                      3XX-RR        3YY-RR        3ZZ-RR
 --------------------------------------------------------
     1   Atom       -0.001662      0.008621     -0.006959
     2   Atom        0.002218      0.000361     -0.002579
     3   Atom        0.003876      0.004293     -0.008170
     4   Atom        0.021539     -0.022186      0.000647
     5   Atom        0.001272     -0.000970     -0.000302
     6   Atom        0.000799     -0.000447     -0.000352
     7   Atom        0.003898     -0.002598     -0.001300
     8   Atom        0.000297      0.001304     -0.001601
     9   Atom        0.000575     -0.001417      0.000842
    10   Atom        0.003250     -0.008744      0.005494
    11   Atom        0.004188     -0.001915     -0.002274
    12   Atom        0.002152     -0.000224     -0.001928
    13   Atom       -0.173343     -0.228794      0.402136
    14   Atom        0.040136      0.047549     -0.087685
    15   Atom        0.045447      0.046784     -0.092232
    16   Atom       -0.101062     -0.118035      0.219097
    17   Atom        0.000199      0.004554     -0.004753
    18   Atom       -0.117140     -0.135784      0.252925
    19   Atom        0.002318      0.002749     -0.005067
    20   Atom        0.002123     -0.031741      0.029618
    21   Atom       -0.012142      0.017142     -0.005000
    22   Atom       -0.006736      0.012078     -0.005343
    23   Atom       -0.554091     -0.690443      1.244534
    24   Atom       -0.003557      0.009757     -0.006201
    25   Atom       -0.000547      0.002031     -0.001484
    26   Atom       -0.000317      0.001105     -0.000789
    27   Atom       -0.000323      0.001243     -0.000920
    28   Atom       -0.000002      0.001088     -0.001086
    29   Atom        0.000153      0.000561     -0.000714
    30   Atom        0.000204      0.000868     -0.001072
    31   Atom        0.000202     -0.003431      0.003229
    32   Atom        0.000034     -0.002861      0.002827
    33   Atom       -0.000126     -0.001391      0.001517
    34   Atom        0.000592     -0.000465     -0.000127
    35   Atom        0.000413     -0.000358     -0.000055
    36   Atom        0.000894     -0.000585     -0.000309
    37   Atom        0.000797     -0.000425     -0.000372
    38   Atom        0.000504     -0.000199     -0.000306
    39   Atom        0.000888     -0.000441     -0.000447
    40   Atom       -0.000251      0.000558     -0.000307
    41   Atom       -0.001033      0.002366     -0.001332
    42   Atom        0.000943      0.001298     -0.002241
    43   Atom        0.000991     -0.000313     -0.000678
    44   Atom        0.001199      0.005398     -0.006597
 --------------------------------------------------------
                        XY            XZ            YZ
 --------------------------------------------------------
     1   Atom        0.007033      0.000342      0.003040
     2   Atom        0.001332     -0.000798     -0.000487
     3   Atom        0.016453     -0.007221     -0.008429
     4   Atom       -0.000878     -0.029348     -0.000330
     5   Atom       -0.002569     -0.001617      0.000870
     6   Atom       -0.001063     -0.000973      0.000954
     7   Atom       -0.001864      0.001145     -0.000793
     8   Atom       -0.002150     -0.000534      0.001174
     9   Atom       -0.002115     -0.002540      0.002677
    10   Atom       -0.001501      0.000245     -0.000095
    11   Atom        0.002780      0.003941      0.001079
    12   Atom       -0.003700      0.003803     -0.002615
    13   Atom       -0.009148     -0.171308      0.029543
    14   Atom       -0.003707      0.038084     -0.007515
    15   Atom        0.006860      0.042699     -0.007721
    16   Atom       -0.003863     -0.097490      0.017902
    17   Atom       -0.002755      0.001394     -0.001430
    18   Atom       -0.004164     -0.107370      0.020030
    19   Atom        0.003610      0.001845      0.000749
    20   Atom       -0.005786     -0.009112      0.003272
    21   Atom       -0.007538     -0.001684     -0.003360
    22   Atom        0.015997     -0.001408      0.003397
    23   Atom       -0.034905     -0.538047      0.127760
    24   Atom       -0.006044      0.001465     -0.003166
    25   Atom       -0.001332     -0.000001      0.000002
    26   Atom       -0.000889      0.000262     -0.000467
    27   Atom       -0.000728      0.000060      0.000100
    28   Atom        0.000788     -0.000266     -0.000336
    29   Atom        0.000884      0.000015     -0.000036
    30   Atom        0.001233     -0.000404     -0.000563
    31   Atom       -0.001923     -0.000136     -0.000389
    32   Atom        0.000365     -0.002434     -0.001043
    33   Atom       -0.000283     -0.001366      0.000427
    34   Atom       -0.000348     -0.000592      0.000167
    35   Atom       -0.000215     -0.000498      0.000149
    36   Atom       -0.000183     -0.000683      0.000082
    37   Atom        0.000284      0.000300      0.000051
    38   Atom        0.000351      0.000179      0.000090
    39   Atom        0.000391      0.000140      0.000018
    40   Atom       -0.001407      0.000354     -0.001065
    41   Atom       -0.001554      0.000907     -0.001995
    42   Atom        0.002798     -0.000233     -0.000538
    43   Atom        0.001991      0.000008     -0.000105
    44   Atom        0.008791      0.001464      0.001383
 --------------------------------------------------------


 ---------------------------------------------------------------------------------
              Anisotropic Spin Dipole Couplings in Principal Axis System
 ---------------------------------------------------------------------------------

       Atom             a.u.   MegaHertz   Gauss  10(-4) cm-1        Axes

              Baa    -0.0078     0.565     0.202     0.189  0.2795 -0.2890  0.9156
     1 O(17)  Bbb    -0.0048     0.347     0.124     0.116  0.8534 -0.3623 -0.3749
              Bcc     0.0126    -0.913    -0.326    -0.304  0.4401  0.8861  0.1453
 
              Baa    -0.0027    -0.367    -0.131    -0.122  0.1325  0.0981  0.9863
     2 C(13)  Bbb    -0.0003    -0.045    -0.016    -0.015 -0.4688  0.8830 -0.0248
              Bcc     0.0031     0.412     0.147     0.137  0.8733  0.4591 -0.1630
 
              Baa    -0.0129     0.936     0.334     0.312 -0.4359  0.6958  0.5708
     3 O(17)  Bbb    -0.0114     0.824     0.294     0.275  0.6118 -0.2361  0.7550
              Bcc     0.0243    -1.759    -0.628    -0.587  0.6601  0.6783 -0.3227
 
              Baa    -0.0224    -3.012    -1.075    -1.005  0.1847  0.9509  0.2484
     4 C(13)  Bbb    -0.0198    -2.658    -0.948    -0.887  0.5460 -0.3094  0.7785
              Bcc     0.0422     5.669     2.023     1.891  0.8171 -0.0082 -0.5764
 
              Baa    -0.0027    -0.103    -0.037    -0.034  0.5695  0.8172  0.0888
     5 N(14)  Bbb    -0.0011    -0.043    -0.015    -0.014  0.2911 -0.3016  0.9079
              Bcc     0.0038     0.146     0.052     0.049  0.7687 -0.4912 -0.4096
 
              Baa    -0.0014    -0.728    -0.260    -0.243  0.0913  0.7668 -0.6353
     6 H(1)   Bbb    -0.0008    -0.404    -0.144    -0.135  0.6703  0.4245  0.6087
              Bcc     0.0021     1.132     0.404     0.378  0.7365 -0.4814 -0.4752
 
              Baa    -0.0032    -1.721    -0.614    -0.574  0.2037  0.9420  0.2667
     7 H(1)   Bbb    -0.0015    -0.778    -0.278    -0.260 -0.2729 -0.2070  0.9395
              Bcc     0.0047     2.499     0.892     0.834  0.9402 -0.2641  0.2149
 
              Baa    -0.0021    -1.098    -0.392    -0.366 -0.1947 -0.4318  0.8807
     8 H(1)   Bbb    -0.0013    -0.677    -0.242    -0.226  0.7841  0.4709  0.4042
              Bcc     0.0033     1.776     0.634     0.592 -0.5893  0.7692  0.2469
 
              Baa    -0.0033    -1.738    -0.620    -0.580  0.1760  0.8706 -0.4594
     9 H(1)   Bbb    -0.0018    -0.953    -0.340    -0.318  0.7853  0.1573  0.5989
              Bcc     0.0050     2.690     0.960     0.897 -0.5936  0.4661  0.6560
 
              Baa    -0.0089    -1.198    -0.428    -0.400  0.1223  0.9925  0.0044
    10 C(13)  Bbb     0.0034     0.457     0.163     0.152  0.9853 -0.1208 -0.1210
              Bcc     0.0055     0.741     0.265     0.247  0.1196 -0.0192  0.9926
 
              Baa    -0.0042    -2.226    -0.794    -0.742 -0.4624  0.1521  0.8736
    11 H(1)   Bbb    -0.0029    -1.531    -0.546    -0.511 -0.2145  0.9367 -0.2767
              Bcc     0.0070     3.757     1.341     1.253  0.8604  0.3153  0.4005
 
              Baa    -0.0043    -2.280    -0.814    -0.761 -0.4129  0.1970  0.8892
    12 H(1)   Bbb    -0.0029    -1.554    -0.555    -0.518  0.5523  0.8305  0.0725
              Bcc     0.0072     3.834     1.368     1.279  0.7242 -0.5210  0.4517
 
              Baa    -0.2303   -30.904   -11.027   -10.308  0.1079  0.9940 -0.0172
    13 C(13)  Bbb    -0.2204   -29.573   -10.552    -9.864  0.9582 -0.0994  0.2684
              Bcc     0.4507    60.477    21.580    20.173 -0.2651  0.0454  0.9632
 
              Baa    -0.0984   -13.210    -4.714    -4.406 -0.2637  0.0429  0.9637
    14 C(13)  Bbb     0.0435     5.835     2.082     1.946  0.6018  0.7881  0.1296
              Bcc     0.0550     7.375     2.632     2.460  0.7538 -0.6141  0.2336
 
              Baa    -0.1050   -14.086    -5.026    -4.699 -0.2752  0.0613  0.9594
    15 C(13)  Bbb     0.0457     6.130     2.187     2.045 -0.3216  0.9346 -0.1519
              Bcc     0.0593     7.956     2.839     2.654  0.9060  0.3504  0.2375
 
              Baa    -0.1285   -17.249    -6.155    -5.754  0.9549 -0.1153  0.2737
    16 C(13)  Bbb    -0.1188   -15.944    -5.689    -5.319  0.1246  0.9921 -0.0166
              Bcc     0.2474    33.194    11.844    11.072 -0.2696  0.0500  0.9617
 
              Baa    -0.0052    -2.762    -0.985    -0.921 -0.2097  0.0838  0.9742
    17 H(1)   Bbb    -0.0010    -0.555    -0.198    -0.185  0.8719  0.4669  0.1475
              Bcc     0.0062     3.317     1.184     1.106 -0.4425  0.8803 -0.1710
 
              Baa    -0.1462   -19.617    -7.000    -6.543  0.9566 -0.1246  0.2636
    18 C(13)  Bbb    -0.1366   -18.335    -6.542    -6.116  0.1331  0.9910 -0.0143
              Bcc     0.2828    37.951    13.542    12.659 -0.2594  0.0487  0.9645
 
              Baa    -0.0055    -2.936    -1.048    -0.979 -0.2361  0.0151  0.9716
    19 H(1)   Bbb    -0.0009    -0.498    -0.178    -0.166 -0.6845  0.7071 -0.1774
              Bcc     0.0064     3.434     1.225     1.146  0.6897  0.7069  0.1567
 
              Baa    -0.0328    -4.395    -1.568    -1.466  0.1562  0.9873 -0.0290
    20 C(13)  Bbb     0.0000     0.004     0.001     0.001  0.9418 -0.1401  0.3055
              Bcc     0.0327     4.391     1.567     1.465 -0.2976  0.0750  0.9517
 
              Baa    -0.0146    -7.789    -2.779    -2.598  0.9354  0.2487  0.2512
    21 H(1)   Bbb    -0.0047    -2.513    -0.897    -0.838 -0.2723  0.0538  0.9607
              Bcc     0.0193    10.303     3.676     3.437 -0.2255  0.9671 -0.1181
 
              Baa    -0.0166    -8.880    -3.169    -2.962  0.8325 -0.4934  0.2520
    22 H(1)   Bbb    -0.0048    -2.548    -0.909    -0.850 -0.2605  0.0530  0.9640
              Bcc     0.0214    11.428     4.078     3.812  0.4890  0.8682  0.0844
 
              Baa    -0.7028    50.854    18.146    16.963  0.9579 -0.0954  0.2709
    23 O(17)  Bbb    -0.6988    50.564    18.043    16.866  0.1089  0.9934 -0.0352
              Bcc     1.4016  -101.418   -36.188   -33.829 -0.2658  0.0632  0.9620
 
              Baa    -0.0069    -3.676    -1.312    -1.226 -0.2660  0.0861  0.9601
    24 H(1)   Bbb    -0.0058    -3.117    -1.112    -1.040  0.8957  0.3903  0.2131
              Bcc     0.0127     6.793     2.424     2.266 -0.3564  0.9167 -0.1809
 
              Baa    -0.0015     0.107     0.038     0.036  0.0010 -0.0002  1.0000
    25 O(17)  Bbb    -0.0011     0.080     0.029     0.027  0.9208  0.3901 -0.0009
              Bcc     0.0026    -0.188    -0.067    -0.063 -0.3901  0.9208  0.0006
 
              Baa    -0.0009    -0.487    -0.174    -0.162 -0.2641  0.1056  0.9587
    26 H(1)   Bbb    -0.0007    -0.393    -0.140    -0.131  0.8654  0.4648  0.1872
              Bcc     0.0016     0.880     0.314     0.294 -0.4259  0.8791 -0.2142
 
              Baa    -0.0009    -0.505    -0.180    -0.169 -0.2353 -0.1225  0.9642
    27 H(1)   Bbb    -0.0006    -0.312    -0.111    -0.104  0.9010  0.3446  0.2637
              Bcc     0.0015     0.817     0.292     0.273 -0.3645  0.9307  0.0293
 
              Baa    -0.0012     0.084     0.030     0.028  0.1644  0.0893  0.9823
    28 O(17)  Bbb    -0.0004     0.029     0.011     0.010  0.8704 -0.4818 -0.1019
              Bcc     0.0016    -0.113    -0.040    -0.038  0.4642  0.8717 -0.1569
 
              Baa    -0.0007    -0.385    -0.137    -0.128 -0.1457  0.1277  0.9811
    29 H(1)   Bbb    -0.0005    -0.290    -0.103    -0.097  0.7691 -0.6092  0.1935
              Bcc     0.0013     0.674     0.241     0.225  0.6224  0.7827 -0.0095
 
              Baa    -0.0012    -0.656    -0.234    -0.219  0.1006  0.2022  0.9742
    30 H(1)   Bbb    -0.0007    -0.395    -0.141    -0.132  0.7999 -0.5987  0.0417
              Bcc     0.0020     1.052     0.375     0.351  0.5916  0.7750 -0.2219
 
              Baa    -0.0043     0.310     0.111     0.103  0.3950  0.9171  0.0547
    31 O(17)  Bbb     0.0010    -0.075    -0.027    -0.025  0.9186 -0.3949 -0.0129
              Bcc     0.0033    -0.235    -0.084    -0.078 -0.0097 -0.0554  0.9984
 
              Baa    -0.0030    -1.626    -0.580    -0.543  0.0317  0.9818  0.1874
    32 H(1)   Bbb    -0.0014    -0.721    -0.257    -0.240  0.8705 -0.1192  0.4774
              Bcc     0.0044     2.347     0.838     0.783 -0.4911 -0.1480  0.8585
 
              Baa    -0.0015    -0.780    -0.278    -0.260  0.1216  0.9889 -0.0860
    33 H(1)   Bbb    -0.0009    -0.478    -0.171    -0.160  0.8638 -0.0627  0.4999
              Bcc     0.0024     1.259     0.449     0.420 -0.4889  0.1350  0.8618
 
              Baa    -0.0006     0.041     0.015     0.014  0.3168  0.9463  0.0653
    34 O(17)  Bbb    -0.0005     0.033     0.012     0.011  0.4295 -0.2045  0.8796
              Bcc     0.0010    -0.074    -0.026    -0.025  0.8457 -0.2506 -0.4712
 
              Baa    -0.0004    -0.224    -0.080    -0.075  0.0732  0.9542 -0.2902
    35 H(1)   Bbb    -0.0004    -0.197    -0.070    -0.066  0.5648  0.2001  0.8006
              Bcc     0.0008     0.421     0.150     0.140  0.8220 -0.2225 -0.5243
 
              Baa    -0.0006    -0.330    -0.118    -0.110  0.4184  0.0817  0.9046
    36 H(1)   Bbb    -0.0006    -0.324    -0.116    -0.108  0.0663  0.9906 -0.1201
              Bcc     0.0012     0.654     0.233     0.218  0.9059 -0.1102 -0.4090
 
              Baa    -0.0005     0.036     0.013     0.012 -0.2686  0.9208  0.2828
    37 O(17)  Bbb    -0.0004     0.032     0.011     0.011 -0.1508 -0.3302  0.9318
              Bcc     0.0009    -0.067    -0.024    -0.022  0.9514  0.2076  0.2275
 
              Baa    -0.0004    -0.191    -0.068    -0.064  0.1279 -0.6829  0.7193
    38 H(1)   Bbb    -0.0003    -0.176    -0.063    -0.059 -0.4058  0.6257  0.6662
              Bcc     0.0007     0.368     0.131     0.123  0.9050  0.3771  0.1971
 
              Baa    -0.0006    -0.294    -0.105    -0.098 -0.2749  0.9391  0.2062
    39 H(1)   Bbb    -0.0005    -0.244    -0.087    -0.081 -0.0362 -0.2244  0.9738
              Bcc     0.0010     0.538     0.192     0.179  0.9608  0.2603  0.0957
 
              Baa    -0.0015     0.106     0.038     0.036  0.6375  0.6551  0.4056
    40 O(17)  Bbb    -0.0006     0.045     0.016     0.015 -0.5741  0.0528  0.8171
              Bcc     0.0021    -0.152    -0.054    -0.051 -0.5138  0.7537 -0.4098
 
              Baa    -0.0023    -1.211    -0.432    -0.404 -0.3024  0.2894  0.9082
    41 H(1)   Bbb    -0.0016    -0.862    -0.308    -0.288  0.8898  0.4273  0.1601
              Bcc     0.0039     2.074     0.740     0.692 -0.3417  0.8565 -0.3868
 
              Baa    -0.0023    -1.253    -0.447    -0.418 -0.1502  0.2560  0.9549
    42 H(1)   Bbb    -0.0016    -0.867    -0.309    -0.289  0.7182 -0.6356  0.2833
              Bcc     0.0040     2.120     0.756     0.707  0.6795  0.7284 -0.0884
 
              Baa    -0.0018     0.128     0.046     0.043 -0.5840  0.8076  0.0823
    43 O(17)  Bbb    -0.0007     0.049     0.017     0.016  0.0625 -0.0563  0.9965
              Bcc     0.0024    -0.176    -0.063    -0.059  0.8093  0.5871 -0.0176
 
              Baa    -0.0069    -3.670    -1.310    -1.224 -0.2565  0.0751  0.9636
    44 H(1)   Bbb    -0.0057    -3.023    -1.079    -1.008  0.7436 -0.6216  0.2464
              Bcc     0.0125     6.693     2.388     2.233  0.6175  0.7797  0.1036
 

 ---------------------------------------------------------------------------------

 No NMR shielding tensors so no spin-rotation constants.
 Leave Link  601 at Wed Aug  2 10:58:04 2006, MaxMem=  268435456 cpu:       1.6
 (Enter /home/konrad/system/software//g03/l9999.exe)
 1\1\GINC-COMP01\SP\UB3LYP\EPR-II\C9H24N1O10(2)\GUIK\02-Aug-2006\0\\#p 
 ub3lyp/EPR-II scrf=(pcm,solvent=water,read) scf=tight guess=read geom=
 connectivity integral=(grid=ultrafine)\\Explicitly hydrated tyrosyl ra
 dical.\\0,2\O\C,1,1.25901958\O,2,1.2633893,1,125.47021309\C,2,1.554880
 36,1,117.61507903,3,-178.40824525,0\N,4,1.51094046,2,107.49022115,1,10
 5.14911506,0\H,5,1.04453801,4,105.82502151,2,-63.65705939,0\H,4,1.1269
 7462,2,110.10994049,1,-9.33378366,0\H,5,1.04185673,4,111.5995552,2,177
 .6517951,0\H,5,1.05151655,4,111.89381602,2,54.17474445,0\C,4,1.5506896
 6,2,114.09146759,1,-129.21930718,0\H,10,1.09814803,4,106.02677213,2,52
 .88304135,0\H,10,1.09827025,4,106.89541462,2,166.25455861,0\C,10,1.509
 93844,4,118.83508235,2,-70.81214757,0\C,13,1.42192689,10,121.34525801,
 4,93.36768188,0\C,13,1.41980407,10,119.64256242,4,-89.22866944,0\C,14,
 1.37298252,13,120.88878523,10,177.72946847,0\H,14,1.08518982,13,119.58
 95313,10,-3.94932586,0\C,15,1.37490483,13,121.46890405,10,-177.8450707
 6,0\H,15,1.08649721,13,118.72539059,10,2.32236104,0\C,18,1.44614341,15
 ,120.08122568,13,0.26706401,0\H,16,1.08624401,14,122.12416727,13,-179.
 96146193,0\H,18,1.08638679,15,122.46816072,13,-179.88994135,0\O,20,1.2
 7457871,18,120.99423847,15,179.80809402,0\H,23,1.88604773,20,112.95539
 874,18,177.63848446,0\O,5,2.81777776,4,111.62026656,2,177.5673815,0\H,
 25,0.97462811,5,122.0514071,4,-1.30104135,0\H,25,0.97449897,5,119.6679
 8029,4,-135.91571251,0\O,3,2.80205726,2,113.77726855,1,68.05790979,0\H
 ,28,0.97093029,3,105.6190511,2,-20.57112914,0\H,28,0.978147,3,10.03789
 557,2,-101.26975583,0\O,3,2.74043212,2,109.50862983,1,-129.50444547,0\
 H,31,0.98324484,3,16.73139508,2,-179.65943454,0\H,31,0.974942,3,104.83
 934943,2,89.88063113,0\O,5,2.79694707,4,89.62130204,2,-60.76950357,0\H
 ,34,0.97426443,5,115.17365031,4,128.50245832,0\H,34,0.98064902,5,88.69
 391962,4,23.09778514,0\O,1,2.82016623,2,130.67872227,3,-125.79858055,0
 \H,37,0.97196638,1,100.97474216,2,61.96855886,0\H,37,0.97720657,1,5.12
 453595,2,-52.05103652,0\O,23,2.85884255,20,111.68458309,18,179.4086760
 3,0\H,40,0.97133281,23,106.41215704,20,-86.46636824,0\H,23,3.27045649,
 20,108.10618888,18,-17.26120183,0\O,23,2.8626737,20,109.98758879,18,0.
 16920876,0\H,43,0.97684767,23,7.11923682,20,-152.98252757,0\\Version=A
 M64L-G03RevD.01\State=2-A\HF=-1164.8018562\S2=0.775964\S2-1=0.\S2A=0.7
 5046\RMSD=5.808e-09\Thermal=0.\Dipole=-4.8240938,-2.3657339,-0.3420836
 \PG=C01 [X(C9H24N1O10)]\\@


 NO SCIENCE HAS EVER MADE MORE RAPID PROGRESS IN A
 SHORTER TIME THAN CHEMISTRY.
   -- MARTIN HEINRICH KLOPROTH, 1791
 (FIRST PROFESSOR OF CHEMISTRY AT THE UNIVERSITY OF BERLIN)
 Job cpu time:  0 days  1 hours  9 minutes  2.8 seconds.
 File lengths (MBytes):  RWF=    676 Int=      0 D2E=      0 Chk=     32 Scr=      1
 Normal termination of Gaussian 03 at Wed Aug  2 10:58:13 2006.
