 Entering Gaussian System, Link 0=g03
 Input=molecule_6.com
 Output=molecule_6.log
 Initial command:
 /data/hamilton/dch0ik/g03/l1.exe /tmp/Gau-18553.inp -scrdir=/tmp/
 Entering Link 1 = /data/hamilton/dch0ik/g03/l1.exe PID=     18554.
  
 Copyright (c) 1988,1990,1992,1993,1995,1998,2003,2004, Gaussian, Inc.
                  All Rights Reserved.
  
 This is the Gaussian(R) 03 program.  It is based on the
 the Gaussian(R) 98 system (copyright 1998, Gaussian, Inc.),
 the Gaussian(R) 94 system (copyright 1995, Gaussian, Inc.),
 the Gaussian 92(TM) system (copyright 1992, Gaussian, Inc.),
 the Gaussian 90(TM) system (copyright 1990, Gaussian, Inc.),
 the Gaussian 88(TM) system (copyright 1988, Gaussian, Inc.),
 the Gaussian 86(TM) system (copyright 1986, Carnegie Mellon
 University), and the Gaussian 82(TM) system (copyright 1983,
 Carnegie Mellon University). Gaussian is a federally registered
 trademark of Gaussian, Inc.
  
 This software contains proprietary and confidential information,
 including trade secrets, belonging to Gaussian, Inc.
  
 This software is provided under written license and may be
 used, copied, transmitted, or stored only in accord with that
 written license.
  
 The following legend is applicable only to US Government
 contracts under FAR:
  
                    RESTRICTED RIGHTS LEGEND
  
 Use, reproduction and disclosure by the US Government is
 subject to restrictions as set forth in subparagraphs (a)
 and (c) of the Commercial Computer Software - Restricted
 Rights clause in FAR 52.227-19.
  
 Gaussian, Inc.
 340 Quinnipiac St., Bldg. 40, Wallingford CT 06492
  
  
 ---------------------------------------------------------------
 Warning -- This program may not be used in any manner that
 competes with the business of Gaussian, Inc. or will provide
 assistance to any competitor of Gaussian, Inc.  The licensee
 of this program is prohibited from giving any competitor of
 Gaussian, Inc. access to this program.  By using this program,
 the user acknowledges that Gaussian, Inc. is engaged in the
 business of creating and licensing software in the field of
 computational chemistry and represents and warrants to the
 licensee that it is not a competitor of Gaussian, Inc. and that
 it will not use this program in any manner prohibited above.
 ---------------------------------------------------------------
  

 Cite this work as:
 Gaussian 03, Revision D.01,
 M. J. Frisch, G. W. Trucks, H. B. Schlegel, G. E. Scuseria, 
 M. A. Robb, J. R. Cheeseman, J. A. Montgomery, Jr., T. Vreven, 
 K. N. Kudin, J. C. Burant, J. M. Millam, S. S. Iyengar, J. Tomasi, 
 V. Barone, B. Mennucci, M. Cossi, G. Scalmani, N. Rega, 
 G. A. Petersson, H. Nakatsuji, M. Hada, M. Ehara, K. Toyota, 
 R. Fukuda, J. Hasegawa, M. Ishida, T. Nakajima, Y. Honda, O. Kitao, 
 H. Nakai, M. Klene, X. Li, J. E. Knox, H. P. Hratchian, J. B. Cross, 
 V. Bakken, C. Adamo, J. Jaramillo, R. Gomperts, R. E. Stratmann, 
 O. Yazyev, A. J. Austin, R. Cammi, C. Pomelli, J. W. Ochterski, 
 P. Y. Ayala, K. Morokuma, G. A. Voth, P. Salvador, J. J. Dannenberg, 
 V. G. Zakrzewski, S. Dapprich, A. D. Daniels, M. C. Strain, 
 O. Farkas, D. K. Malick, A. D. Rabuck, K. Raghavachari, 
 J. B. Foresman, J. V. Ortiz, Q. Cui, A. G. Baboul, S. Clifford, 
 J. Cioslowski, B. B. Stefanov, G. Liu, A. Liashenko, P. Piskorz, 
 I. Komaromi, R. L. Martin, D. J. Fox, T. Keith, M. A. Al-Laham, 
 C. Y. Peng, A. Nanayakkara, M. Challacombe, P. M. W. Gill, 
 B. Johnson, W. Chen, M. W. Wong, C. Gonzalez, and J. A. Pople, 
 Gaussian, Inc., Wallingford CT, 2004.
 
 ******************************************
 Gaussian 03:  IA32L-G03RevD.01 13-Oct-2005
                 1-Aug-2008 
 ******************************************
 %Mem=1400MB
 %NProcShared=2
 Will use up to    2 processors via shared memory.
 %NProcLinda=2
 Will use up to    2 processors via Linda.
 %Chk=molecule_6.chk
 ----------------------------------------------------------------------
 #p opt=gdiis b3lyp/Gen scf=tight pseudo=read geom=checkpoint integral=
 (grid=ultrafine)
 ----------------------------------------------------------------------
 1/14=-1,18=20,19=11,26=3,29=2,38=1/1,3;
 2/9=110,40=1/2;
 3/5=7,11=2,16=1,17=8,25=1,30=1,74=-5,75=5/1,2,3;
 4//1;
 5/5=2,32=2,38=5/2;
 6/7=2,8=2,9=2,10=2,28=1/1;
 7//1,2,3,16;
 1/14=-1,18=20,19=11/3(3);
 2/9=110/2;
 6/7=2,8=2,9=2,10=2,19=2,28=1/1;
 99//99;
 2/9=110/2;
 3/5=7,6=1,11=2,16=1,17=8,25=1,30=1,74=-5,75=5,82=7/1,2,3;
 4/5=5,16=3/1;
 5/5=2,32=2,38=5/2;
 7//1,2,3,16;
 1/14=-1,18=20,19=11/3(-5);
 2/9=110/2;
 6/7=2,8=2,9=2,10=2,19=2,28=1/1;
 99/9=1/99;
 Leave Link    1 at Fri Aug  1 09:51:21 2008, MaxMem=  183500800 cpu:       0.4
 (Enter /data/hamilton/dch0ik/g03/l101.exe)
 ---------------------
 Molecule 6, geometry.
 ---------------------
 No Z-matrix found on checkpoint file.
 Cartesian coordinates read from the checkpoint file:
 molecule_6.chk
 Charge =  0 Multiplicity = 1
  P                                                -2.388279205641     -0.624049156558     -0.619643634589
  O                                                -2.457337201748      0.568912262312     -1.558303564279
  O                                                -3.578874704964     -1.417883740878     -0.114564457311
  N                                                -1.506812399367      0.063996700278      0.934439408072
  H                                                -1.694192387209      1.092299626357      0.995088566669
  S                                                -0.715091100103     -1.879348259121     -1.117072448810
  C                                                -0.038002387600     -0.200740551337      0.933895498570
  H                                                 0.481843565930      0.690696914527      1.303622517453
  H                                                 0.159688487439     -1.036281551516      1.614712918040
  C                                                 0.450101846364     -0.566423785323     -0.475258117501
  H                                                 0.374172585809      0.297497796590     -1.146233340968
  C                                                 1.856760959705     -1.134548081605     -0.505572687412
  H                                                 1.977418146960     -1.984541374902      0.173481750670
  H                                                 2.147648374624     -1.421125237035     -1.518988978601
  I                                                 3.387596025206      0.341331346602      0.108524167242
  O                                                -3.177783162441     -1.501756645610      2.580524041270
  H                                                -3.544519493997     -1.690024132424      1.687144635813
  H                                                -3.137299730145     -2.345738835078      3.042927515675
  O                                                -2.052132206032      2.789310787094      1.163627639227
  H                                                -1.440102129695      3.527888687323      1.253103059482
  H                                                -2.642688715765      3.008382848685      0.397019980585
  H                                                -1.963016007141     -0.400694472288      1.741146714827
  O                                                -3.526296080889      2.997547654297     -1.065138759458
  H                                                -3.232187082752      2.105688522042     -1.370955644575
  H                                                -4.489798107620      2.968954431697     -1.064660123965
 Recover connectivity data from disk.
                    Isotopes and Nuclear Properties:
 (Nuclear quadrupole moments (NQMom) in fm**2, nuclear magnetic moments (NMagM)
  in nuclear magnetons)

  Atom         1           2           3           4           5           6           7           8           9          10
 IAtWgt=          31          16          16          14           1          32          12           1           1          12
 AtmWgt=  30.9737634  15.9949146  15.9949146  14.0030740   1.0078250  31.9720718  12.0000000   1.0078250   1.0078250  12.0000000
 NucSpn=           1           0           0           2           1           0           0           1           1           0
 AtZEff= -12.9400000  -5.6000000  -5.6000000  -4.5500000  -1.0000000 -13.6000000  -3.6000000  -1.0000000  -1.0000000  -3.6000000
 NQMom=    0.0000000   0.0000000   0.0000000   2.0440000   0.0000000   0.0000000   0.0000000   0.0000000   0.0000000   0.0000000
 NMagM=    1.1316000   0.0000000   0.0000000   0.4037610   2.7928460   0.0000000   0.0000000   2.7928460   2.7928460   0.0000000

  Atom        11          12          13          14          15          16          17          18          19          20
 IAtWgt=           1          12           1           1         127          16           1           1          16           1
 AtmWgt=   1.0078250  12.0000000   1.0078250   1.0078250 126.9004000  15.9949146   1.0078250   1.0078250  15.9949146   1.0078250
 NucSpn=           1           0           1           1           5           0           1           1           0           1
 AtZEff=  -1.0000000  -3.6000000  -1.0000000  -1.0000000************  -5.6000000  -1.0000000  -1.0000000  -5.6000000  -1.0000000
 NQMom=    0.0000000   0.0000000   0.0000000   0.0000000 -71.0000000   0.0000000   0.0000000   0.0000000   0.0000000   0.0000000
 NMagM=    2.7928460   0.0000000   2.7928460   2.7928460   2.8132800   0.0000000   2.7928460   2.7928460   0.0000000   2.7928460

  Atom        21          22          23          24          25
 IAtWgt=           1           1          16           1           1
 AtmWgt=   1.0078250   1.0078250  15.9949146   1.0078250   1.0078250
 NucSpn=           1           1           0           1           1
 AtZEff=  -1.0000000  -1.0000000  -5.6000000  -1.0000000  -1.0000000
 NQMom=    0.0000000   0.0000000   0.0000000   0.0000000   0.0000000
 NMagM=    2.7928460   2.7928460   0.0000000   2.7928460   2.7928460
 Leave Link  101 at Fri Aug  1 09:51:23 2008, MaxMem=  183500800 cpu:       0.1
 (Enter /data/hamilton/dch0ik/g03/l103.exe)

 GradGradGradGradGradGradGradGradGradGradGradGradGradGradGradGradGradGrad
 Berny optimization.
 Initialization pass.
                           ----------------------------
                           !    Initial Parameters    !
                           ! (Angstroms and Degrees)  !
 --------------------------                            --------------------------
 ! Name  Definition              Value          Derivative Info.                !
 --------------------------------------------------------------------------------
 ! R1    R(1,2)                  1.5195         estimate D2E/DX2                !
 ! R2    R(1,3)                  1.5175         estimate D2E/DX2                !
 ! R3    R(1,4)                  1.9146         estimate D2E/DX2                !
 ! R4    R(1,6)                  2.1501         estimate D2E/DX2                !
 ! R5    R(2,24)                 1.7312         estimate D2E/DX2                !
 ! R6    R(3,17)                 1.8225         estimate D2E/DX2                !
 ! R7    R(4,5)                  1.047          estimate D2E/DX2                !
 ! R8    R(4,7)                  1.4925         estimate D2E/DX2                !
 ! R9    R(4,22)                 1.0367         estimate D2E/DX2                !
 ! R10   R(5,19)                 1.7425         estimate D2E/DX2                !
 ! R11   R(6,10)                 1.8691         estimate D2E/DX2                !
 ! R12   R(7,8)                  1.0962         estimate D2E/DX2                !
 ! R13   R(7,9)                  1.0958         estimate D2E/DX2                !
 ! R14   R(7,10)                 1.5355         estimate D2E/DX2                !
 ! R15   R(10,11)                1.0965         estimate D2E/DX2                !
 ! R16   R(10,12)                1.5174         estimate D2E/DX2                !
 ! R17   R(12,13)                1.0946         estimate D2E/DX2                !
 ! R18   R(12,14)                1.0926         estimate D2E/DX2                !
 ! R19   R(12,15)                2.2133         estimate D2E/DX2                !
 ! R20   R(16,17)                0.9839         estimate D2E/DX2                !
 ! R21   R(16,18)                0.9632         estimate D2E/DX2                !
 ! R22   R(16,22)                1.8419         estimate D2E/DX2                !
 ! R23   R(19,20)                0.9634         estimate D2E/DX2                !
 ! R24   R(19,21)                0.9922         estimate D2E/DX2                !
 ! R25   R(21,23)                1.7084         estimate D2E/DX2                !
 ! R26   R(23,24)                0.9876         estimate D2E/DX2                !
 ! R27   R(23,25)                0.9639         estimate D2E/DX2                !
 ! A1    A(2,1,3)              125.4954         estimate D2E/DX2                !
 ! A2    A(2,1,4)              103.8986         estimate D2E/DX2                !
 ! A3    A(2,1,6)              110.5372         estimate D2E/DX2                !
 ! A4    A(3,1,4)              106.2034         estimate D2E/DX2                !
 ! A5    A(3,1,6)              112.4666         estimate D2E/DX2                !
 ! A6    A(4,1,6)               92.2539         estimate D2E/DX2                !
 ! A7    A(1,2,24)             130.571          estimate D2E/DX2                !
 ! A8    A(1,3,17)             113.1021         estimate D2E/DX2                !
 ! A9    A(1,4,5)              108.5167         estimate D2E/DX2                !
 ! A10   A(1,4,7)              112.8959         estimate D2E/DX2                !
 ! A11   A(1,4,22)             105.5416         estimate D2E/DX2                !
 ! A12   A(5,4,7)              110.5098         estimate D2E/DX2                !
 ! A13   A(5,4,22)             108.445          estimate D2E/DX2                !
 ! A14   A(7,4,22)             110.722          estimate D2E/DX2                !
 ! A15   A(1,6,10)              89.7465         estimate D2E/DX2                !
 ! A16   A(4,7,8)              108.8046         estimate D2E/DX2                !
 ! A17   A(4,7,9)              108.2148         estimate D2E/DX2                !
 ! A18   A(4,7,10)             110.8194         estimate D2E/DX2                !
 ! A19   A(8,7,9)              108.9641         estimate D2E/DX2                !
 ! A20   A(8,7,10)             110.638          estimate D2E/DX2                !
 ! A21   A(9,7,10)             109.3446         estimate D2E/DX2                !
 ! A22   A(6,10,7)             106.5146         estimate D2E/DX2                !
 ! A23   A(6,10,11)            107.4669         estimate D2E/DX2                !
 ! A24   A(6,10,12)            107.9424         estimate D2E/DX2                !
 ! A25   A(7,10,11)            110.6051         estimate D2E/DX2                !
 ! A26   A(7,10,12)            113.7157         estimate D2E/DX2                !
 ! A27   A(11,10,12)           110.3019         estimate D2E/DX2                !
 ! A28   A(10,12,13)           112.3671         estimate D2E/DX2                !
 ! A29   A(10,12,14)           111.3184         estimate D2E/DX2                !
 ! A30   A(10,12,15)           112.7044         estimate D2E/DX2                !
 ! A31   A(13,12,14)           110.0223         estimate D2E/DX2                !
 ! A32   A(13,12,15)           105.6309         estimate D2E/DX2                !
 ! A33   A(14,12,15)           104.3656         estimate D2E/DX2                !
 ! A34   A(17,16,18)           106.4932         estimate D2E/DX2                !
 ! A35   A(17,16,22)            86.929          estimate D2E/DX2                !
 ! A36   A(18,16,22)           135.6311         estimate D2E/DX2                !
 ! A37   A(3,17,16)            151.176          estimate D2E/DX2                !
 ! A38   A(5,19,20)            128.691          estimate D2E/DX2                !
 ! A39   A(5,19,21)            105.2222         estimate D2E/DX2                !
 ! A40   A(20,19,21)           106.2972         estimate D2E/DX2                !
 ! A41   A(19,21,23)           165.398          estimate D2E/DX2                !
 ! A42   A(4,22,16)            155.889          estimate D2E/DX2                !
 ! A43   A(21,23,24)            96.7026         estimate D2E/DX2                !
 ! A44   A(21,23,25)           121.1135         estimate D2E/DX2                !
 ! A45   A(24,23,25)           105.7253         estimate D2E/DX2                !
 ! A46   A(2,24,23)            165.5529         estimate D2E/DX2                !
 ! A47   L(4,5,19,1,-1)        180.9574         estimate D2E/DX2                !
 ! A48   L(4,5,19,1,-2)        176.5109         estimate D2E/DX2                !
 ! D1    D(3,1,2,24)            60.9337         estimate D2E/DX2                !
 ! D2    D(4,1,2,24)           -61.0415         estimate D2E/DX2                !
 ! D3    D(6,1,2,24)          -158.8558         estimate D2E/DX2                !
 ! D4    D(2,1,3,17)          -131.9855         estimate D2E/DX2                !
 ! D5    D(4,1,3,17)           -11.023          estimate D2E/DX2                !
 ! D6    D(6,1,3,17)            88.4444         estimate D2E/DX2                !
 ! D7    D(2,1,4,5)             27.061          estimate D2E/DX2                !
 ! D8    D(2,1,4,7)            -95.796          estimate D2E/DX2                !
 ! D9    D(2,1,4,22)           143.1313         estimate D2E/DX2                !
 ! D10   D(3,1,4,5)           -106.9502         estimate D2E/DX2                !
 ! D11   D(3,1,4,7)            130.1929         estimate D2E/DX2                !
 ! D12   D(3,1,4,22)             9.1201         estimate D2E/DX2                !
 ! D13   D(6,1,4,5)            138.8639         estimate D2E/DX2                !
 ! D14   D(6,1,4,7)             16.007          estimate D2E/DX2                !
 ! D15   D(6,1,4,22)          -105.0658         estimate D2E/DX2                !
 ! D16   D(2,1,6,10)            70.7019         estimate D2E/DX2                !
 ! D17   D(3,1,6,10)          -143.6194         estimate D2E/DX2                !
 ! D18   D(4,1,6,10)           -35.0487         estimate D2E/DX2                !
 ! D19   D(1,2,24,23)           58.6402         estimate D2E/DX2                !
 ! D20   D(1,3,17,16)           11.8032         estimate D2E/DX2                !
 ! D21   D(1,4,19,20)         -126.5756         estimate D2E/DX2                !
 ! D22   D(1,4,19,21)            0.5817         estimate D2E/DX2                !
 ! D23   D(7,4,19,20)           -1.2017         estimate D2E/DX2                !
 ! D24   D(7,4,19,21)          125.9556         estimate D2E/DX2                !
 ! D25   D(22,4,19,20)         119.8115         estimate D2E/DX2                !
 ! D26   D(22,4,19,21)        -113.0312         estimate D2E/DX2                !
 ! D27   D(1,4,7,8)            139.0827         estimate D2E/DX2                !
 ! D28   D(1,4,7,9)           -102.658          estimate D2E/DX2                !
 ! D29   D(1,4,7,10)            17.2238         estimate D2E/DX2                !
 ! D30   D(5,4,7,8)             17.3432         estimate D2E/DX2                !
 ! D31   D(5,4,7,9)            135.6025         estimate D2E/DX2                !
 ! D32   D(5,4,7,10)          -104.5157         estimate D2E/DX2                !
 ! D33   D(22,4,7,8)          -102.8349         estimate D2E/DX2                !
 ! D34   D(22,4,7,9)            15.4244         estimate D2E/DX2                !
 ! D35   D(22,4,7,10)          135.3063         estimate D2E/DX2                !
 ! D36   D(1,4,22,16)           -2.7204         estimate D2E/DX2                !
 ! D37   D(5,4,22,16)          113.3989         estimate D2E/DX2                !
 ! D38   D(7,4,22,16)         -125.1976         estimate D2E/DX2                !
 ! D39   D(1,6,10,7)            51.4495         estimate D2E/DX2                !
 ! D40   D(1,6,10,11)          -67.1123         estimate D2E/DX2                !
 ! D41   D(1,6,10,12)          173.9261         estimate D2E/DX2                !
 ! D42   D(4,7,10,6)           -48.8383         estimate D2E/DX2                !
 ! D43   D(4,7,10,11)           67.6453         estimate D2E/DX2                !
 ! D44   D(4,7,10,12)         -167.6021         estimate D2E/DX2                !
 ! D45   D(8,7,10,6)          -169.617          estimate D2E/DX2                !
 ! D46   D(8,7,10,11)          -53.1334         estimate D2E/DX2                !
 ! D47   D(8,7,10,12)           71.6192         estimate D2E/DX2                !
 ! D48   D(9,7,10,6)            70.3657         estimate D2E/DX2                !
 ! D49   D(9,7,10,11)         -173.1508         estimate D2E/DX2                !
 ! D50   D(9,7,10,12)          -48.3982         estimate D2E/DX2                !
 ! D51   D(6,10,12,13)         -64.3411         estimate D2E/DX2                !
 ! D52   D(6,10,12,14)          59.5781         estimate D2E/DX2                !
 ! D53   D(6,10,12,15)         176.4493         estimate D2E/DX2                !
 ! D54   D(7,10,12,13)          53.6022         estimate D2E/DX2                !
 ! D55   D(7,10,12,14)         177.5215         estimate D2E/DX2                !
 ! D56   D(7,10,12,15)         -65.6074         estimate D2E/DX2                !
 ! D57   D(11,10,12,13)        178.5174         estimate D2E/DX2                !
 ! D58   D(11,10,12,14)        -57.5634         estimate D2E/DX2                !
 ! D59   D(11,10,12,15)         59.3078         estimate D2E/DX2                !
 ! D60   D(18,16,17,3)        -140.6555         estimate D2E/DX2                !
 ! D61   D(22,16,17,3)          -3.7091         estimate D2E/DX2                !
 ! D62   D(17,16,22,4)          -1.1025         estimate D2E/DX2                !
 ! D63   D(18,16,22,4)         109.4908         estimate D2E/DX2                !
 ! D64   D(5,19,21,23)         -13.2344         estimate D2E/DX2                !
 ! D65   D(20,19,21,23)        125.7497         estimate D2E/DX2                !
 ! D66   D(19,21,23,24)          1.1175         estimate D2E/DX2                !
 ! D67   D(19,21,23,25)        114.0517         estimate D2E/DX2                !
 ! D68   D(21,23,24,2)          -6.3431         estimate D2E/DX2                !
 ! D69   D(25,23,24,2)        -131.3455         estimate D2E/DX2                !
 --------------------------------------------------------------------------------
 Trust Radius=3.00D-01 FncErr=1.00D-07 GrdErr=1.00D-06
 Number of steps in this run= 150 maximum allowed number of steps= 150.
 GradGradGradGradGradGradGradGradGradGradGradGradGradGradGradGradGradGrad

 Leave Link  103 at Fri Aug  1 09:51:25 2008, MaxMem=  183500800 cpu:       0.1
 (Enter /data/hamilton/dch0ik/g03/l202.exe)
                          Input orientation:                          
 ---------------------------------------------------------------------
 Center     Atomic     Atomic              Coordinates (Angstroms)
 Number     Number      Type              X           Y           Z
 ---------------------------------------------------------------------
    1         15             0       -2.388279   -0.624049   -0.619644
    2          8             0       -2.457337    0.568912   -1.558304
    3          8             0       -3.578875   -1.417884   -0.114564
    4          7             0       -1.506812    0.063997    0.934439
    5          1             0       -1.694192    1.092300    0.995089
    6         16             0       -0.715091   -1.879348   -1.117072
    7          6             0       -0.038002   -0.200741    0.933895
    8          1             0        0.481844    0.690697    1.303623
    9          1             0        0.159688   -1.036282    1.614713
   10          6             0        0.450102   -0.566424   -0.475258
   11          1             0        0.374173    0.297498   -1.146233
   12          6             0        1.856761   -1.134548   -0.505573
   13          1             0        1.977418   -1.984541    0.173482
   14          1             0        2.147648   -1.421125   -1.518989
   15         53             0        3.387596    0.341331    0.108524
   16          8             0       -3.177783   -1.501757    2.580524
   17          1             0       -3.544519   -1.690024    1.687145
   18          1             0       -3.137300   -2.345739    3.042928
   19          8             0       -2.052132    2.789311    1.163628
   20          1             0       -1.440102    3.527889    1.253103
   21          1             0       -2.642689    3.008383    0.397020
   22          1             0       -1.963016   -0.400694    1.741147
   23          8             0       -3.526296    2.997548   -1.065139
   24          1             0       -3.232187    2.105689   -1.370956
   25          1             0       -4.489798    2.968954   -1.064660
 ---------------------------------------------------------------------
                    Distance matrix (angstroms):
                    1          2          3          4          5
     1  P    0.000000
     2  O    1.519542   0.000000
     3  O    1.517497   2.699924   0.000000
     4  N    1.914567   2.715180   2.754963   0.000000
     5  H    2.456618   2.715904   3.329321   1.046994   0.000000
     6  S    2.150063   3.037118   3.069076   2.934640   3.774991
     7  C    2.848943   3.557612   3.888249   1.492477   2.102062
     8  H    3.696636   4.104173   4.790282   2.117499   2.234191
     9  H    3.413858   4.415145   4.136771   2.109647   2.889925
    10  C    2.842635   3.303813   4.133731   2.492828   3.084036
    11  H    2.959339   2.874181   4.430966   2.814574   3.081413
    12  C    4.277147   4.756203   5.457041   3.850165   4.451978
    13  H    4.641045   5.402431   5.592536   4.112837   4.860320
    14  H    4.692418   5.016741   5.896226   4.645426   5.234275
    15  I    5.901095   6.082216   7.188624   4.971346   5.212919
    16  O    3.410976   4.683653   2.726061   2.820163   3.382865
    17  H    2.791857   4.100938   1.822470   2.792025   3.412327
    18  H    4.115784   5.488977   3.320491   3.593193   4.253976
    19  O    3.865757   3.535996   4.654590   2.788770   1.742519
    20  H    4.652398   4.206461   5.559274   3.479159   2.462362
    21  H    3.780594   3.131878   4.553021   3.201319   2.220069
    22  H    2.409163   3.474315   2.662581   1.036743   1.690533
    23  O    3.822239   2.698917   4.516901   4.084403   3.351285
    24  H    2.954339   1.731234   3.756897   3.529911   2.998425
    25  H    4.186179   3.183517   4.580045   4.618807   3.947127
                    6          7          8          9         10
     6  S    0.000000
     7  C    2.735442   0.000000
     8  H    3.727942   1.096175   0.000000
     9  H    2.989758   1.095775   1.784101   0.000000
    10  C    1.869056   1.535475   2.178480   2.161732   0.000000
    11  H    2.434339   2.178317   2.483544   3.073727   1.096510
    12  C    2.746467   2.556207   2.914636   2.717595   1.517358
    13  H    2.987675   2.796801   3.266628   2.506090   2.182800
    14  H    2.926907   3.504718   3.898953   3.730975   2.168306
    15  I    4.823437   3.565081   3.161284   3.819137   3.129488
    16  O    4.458660   3.776540   4.453111   3.505449   4.834687
    17  H    3.988125   3.883428   4.693242   3.762151   4.679259
    18  H    4.836343   4.319106   5.034215   3.824213   5.330389
    19  O    5.365226   3.612465   3.293146   4.441935   4.495339
    20  H    5.948242   3.996305   3.427256   4.849922   4.829441
    21  H    5.467909   4.167865   3.994534   5.069063   4.806814
    22  H    3.451543   2.096977   2.712914   2.219421   3.280709
    23  O    5.629359   5.137449   5.195938   6.086039   5.372299
    24  H    4.720249   4.564512   4.790573   5.503727   4.636994
    25  H    6.144689   5.818907   5.959567   6.696169   6.103188
                   11         12         13         14         15
    11  H    0.000000
    12  C    2.158534   0.000000
    13  H    3.085409   1.094606   0.000000
    14  H    2.497564   1.092591   1.791891   0.000000
    15  I    3.264515   2.213321   2.720755   2.700467   0.000000
    16  O    5.453662   5.916542   5.709907   6.721066   7.253410
    17  H    5.228233   5.855800   5.733211   6.538530   7.394097
    18  H    6.071755   6.244956   5.875757   7.042490   7.642338
    19  O    4.175110   5.784665   6.325135   6.523983   6.057763
    20  H    4.414050   5.974995   6.575098   6.711869   5.896684
    21  H    4.339583   6.182524   6.806221   6.799924   6.600055
    22  H    3.779800   4.491880   4.526938   5.344841   5.643147
    23  O    4.744523   6.809158   7.526371   7.205851   7.498992
    24  H    4.040530   6.094704   6.801122   6.434513   7.008805
    25  H    5.549914   7.578267   8.239842   7.970879   8.386543
                   16         17         18         19         20
    16  O    0.000000
    17  H    0.983904   0.000000
    18  H    0.963204   1.560108   0.000000
    19  O    4.657032   4.750340   5.574773   0.000000
    20  H    5.484425   5.643011   6.370514   0.963371   0.000000
    21  H    5.039382   4.955073   5.992669   0.992188   1.564921
    22  H    1.841888   2.041186   2.618544   3.243085   3.993168
    23  O    5.801384   5.435874   6.751166   2.680284   3.163497
    24  H    5.350777   4.884359   6.269495   2.878191   3.481366
    25  H    5.915742   5.492910   6.851824   3.307530   3.871057
                   21         22         23         24         25
    21  H    0.000000
    22  H    3.726988   0.000000
    23  O    1.708446   4.676231   0.000000
    24  H    2.070774   4.192604   0.987642   0.000000
    25  H    2.355818   5.060802   0.963926   1.555838   0.000000
 Stoichiometry    C3H13INO5PS
 Framework group  C1[X(C3H13INO5PS)]
 Deg. of freedom    69
 Full point group                 C1
 Largest Abelian subgroup         C1      NOp   1
 Largest concise Abelian subgroup C1      NOp   1
                         Standard orientation:                         
 ---------------------------------------------------------------------
 Center     Atomic     Atomic              Coordinates (Angstroms)
 Number     Number      Type              X           Y           Z
 ---------------------------------------------------------------------
    1         15             0       -2.388279   -0.624049   -0.619644
    2          8             0       -2.457337    0.568912   -1.558304
    3          8             0       -3.578875   -1.417884   -0.114564
    4          7             0       -1.506812    0.063997    0.934439
    5          1             0       -1.694192    1.092300    0.995089
    6         16             0       -0.715091   -1.879348   -1.117072
    7          6             0       -0.038002   -0.200741    0.933895
    8          1             0        0.481844    0.690697    1.303623
    9          1             0        0.159688   -1.036282    1.614713
   10          6             0        0.450102   -0.566424   -0.475258
   11          1             0        0.374173    0.297498   -1.146233
   12          6             0        1.856761   -1.134548   -0.505573
   13          1             0        1.977418   -1.984541    0.173482
   14          1             0        2.147648   -1.421125   -1.518989
   15         53             0        3.387596    0.341331    0.108524
   16          8             0       -3.177783   -1.501757    2.580524
   17          1             0       -3.544519   -1.690024    1.687145
   18          1             0       -3.137300   -2.345739    3.042928
   19          8             0       -2.052132    2.789311    1.163628
   20          1             0       -1.440102    3.527889    1.253103
   21          1             0       -2.642689    3.008383    0.397020
   22          1             0       -1.963016   -0.400694    1.741147
   23          8             0       -3.526296    2.997548   -1.065139
   24          1             0       -3.232187    2.105689   -1.370956
   25          1             0       -4.489798    2.968954   -1.064660
 ---------------------------------------------------------------------
 Rotational constants (GHZ):      0.5959866      0.1799994      0.1648940
 Leave Link  202 at Fri Aug  1 09:51:27 2008, MaxMem=  183500800 cpu:       0.1
 (Enter /data/hamilton/dch0ik/g03/l301.exe)
 General basis read from cards:  (5D, 7F)
 Centers:   7 10 12  5  8  9 11 13 14 17 18 20 21 22 24 25  4  2  3 16
 Centers:  19 23  1  6
 aug-cc-pVDZ
 ****
 Centers:  15
 S 1 1.00
     Exponent=  6.8030000000D-01 Coefficients=  1.0000000000D+00
 S 1 1.00
     Exponent=  5.2080000000D-01 Coefficients=  1.0000000000D+00
 S 1 1.00
     Exponent=  1.1430000000D-01 Coefficients=  1.0000000000D+00
 P 1 1.00
     Exponent=  1.1250000000D+00 Coefficients=  1.0000000000D+00
 P 1 1.00
     Exponent=  3.5080000000D-01 Coefficients=  1.0000000000D+00
 P 1 1.00
     Exponent=  1.1660000000D-01 Coefficients=  1.0000000000D+00
 D 1 1.00
     Exponent=  3.9502000000D+00 Coefficients=  1.0000000000D+00
 D 1 1.00
     Exponent=  2.5742000000D+00 Coefficients=  1.0000000000D+00
 D 1 1.00
     Exponent=  1.3071000000D+00 Coefficients=  1.0000000000D+00
 D 1 1.00
     Exponent=  5.1160000000D-01 Coefficients=  1.0000000000D+00
 ****
 ===================================================================================================================================
 Pseudopotential Parameters 
 ===================================================================================================================================
  Center     Atomic      Valence      Angular      Power                                                       Coordinates
  Number     Number     Electrons     Momentum     of R      Exponent        Coefficient                X           Y           Z
 ===================================================================================================================================
    1         15                                                                                   -4.513194 -1.179282 -1.170957
                                   No pseudopotential on this center.
    2          8                                                                                   -4.643694  1.075088 -2.944767
                                   No pseudopotential on this center.
    3          8                                                                                   -6.763093 -2.679412 -0.216495
                                   No pseudopotential on this center.
    4          7                                                                                   -2.847463  0.120936  1.765835
                                   No pseudopotential on this center.
    5          1                                                                                   -3.201560  2.064147  1.880445
                                   No pseudopotential on this center.
    6         16                                                                                   -1.351326 -3.551454 -2.110961
                                   No pseudopotential on this center.
    7          6                                                                                   -0.071814 -0.379345  1.764807
                                   No pseudopotential on this center.
    8          1                                                                                    0.910552  1.305228  2.463490
                                   No pseudopotential on this center.
    9          1                                                                                    0.301768 -1.958288  3.051365
                                   No pseudopotential on this center.
   10          6                                                                                    0.850569 -1.070386 -0.898108
                                   No pseudopotential on this center.
   11          1                                                                                    0.707084  0.562189 -2.166067
                                   No pseudopotential on this center.
   12          6                                                                                    3.508770 -2.143985 -0.955394
                                   No pseudopotential on this center.
   13          1                                                                                    3.736779 -3.750240  0.327833
                                   No pseudopotential on this center.
   14          1                                                                                    4.058467 -2.685538 -2.870473
                                   No pseudopotential on this center.
   15         53           17                                                                       6.401629  0.645023  0.205081
                                      F and up 
                                                     2        2.0065999       -2.60678697
                                                     2        5.4120002      -15.30154037
                                                     2       20.8878994      -73.32185364
                                                     1       63.8210983      -23.43061638
                                      S - F
                                                     2        1.5301000     -144.29801941
                                                     2        1.8566001      252.49822998
                                                     2        2.5843000     -200.15640259
                                                     2        3.7542000       85.98131561
                                                     1        1.1387000       32.24239349
                                                     0       12.4701004        6.45168209
                                      P - F
                                                     2        0.9111000       32.43734360
                                                     2        1.0658000     -101.57602692
                                                     2        1.3899000      169.25859070
                                                     2        1.7958000     -105.27653503
                                                     1        2.5479000       12.12060356
                                                     0        1.1725000        6.45733500
                                      D - F
                                                     2        0.8653000        3.41730189
                                                     2        0.8996000       -3.97894001
                                                     2        4.5872002      -37.31042862
                                                     2        5.5282002       77.44996643
                                                     1       22.2080002       18.01509857
                                                     0       19.1401005        6.86909294
   16          8                                                                                   -6.005140 -2.837909  4.876484
                                   No pseudopotential on this center.
   17          1                                                                                   -6.698171 -3.193683  3.188241
                                   No pseudopotential on this center.
   18          1                                                                                   -5.928637 -4.432804  5.750300
                                   No pseudopotential on this center.
   19          8                                                                                   -3.877968  5.271033  2.198938
                                   No pseudopotential on this center.
   20          1                                                                                   -2.721399  6.666743  2.368022
                                   No pseudopotential on this center.
   21          1                                                                                   -4.993958  5.685020  0.750259
                                   No pseudopotential on this center.
   22          1                                                                                   -3.709563 -0.757203  3.290290
                                   No pseudopotential on this center.
   23          8                                                                                   -6.663734  5.664544 -2.012821
                                   No pseudopotential on this center.
   24          1                                                                                   -6.107948  3.979175 -2.590731
                                   No pseudopotential on this center.
   25          1                                                                                   -8.484489  5.610511 -2.011916
                                   No pseudopotential on this center.
 ===================================================================================================================================
 There are   410 symmetry adapted basis functions of A   symmetry.
 Integral buffers will be    262144 words long.
 Raffenetti 2 integral format.
 Two-electron integral symmetry is turned on.
   410 basis functions,   732 primitive gaussians,   436 cartesian basis functions
    63 alpha electrons       63 beta electrons
       nuclear repulsion energy      1155.6953236422 Hartrees.
 IExCor= 402 DFT=T Ex=B+HF Corr=LYP ExCW=0 ScaHFX=  0.200000
 ScaDFX=  0.800000  0.720000  1.000000  0.810000
 IRadAn=      5 IRanWt=     -1 IRanGd=            0 ICorTp=0
 NAtoms=   25 NActive=   25 NUniq=   25 SFac= 7.50D-01 NAtFMM=  320 NAOKFM=F Big=F
 Leave Link  301 at Fri Aug  1 09:51:28 2008, MaxMem=  183500800 cpu:       0.1
 (Enter /data/hamilton/dch0ik/g03/linda-exe/l302.exel)
 NPDir=0 NMtPBC=     1 NCelOv=     1 NCel=       1 NClECP=     1 NCelD=      1
         NCelK=      1 NCelE2=     1 NClLst=     1 CellRange=     0.0.
 One-electron integrals computed using PRISM.
   1 Symmetry operations used in ECPInt.
 ECPInt:  NShTT=   15931 NPrTT=   80121 LenC2=   15454 LenP2D=   52821.
 LDataN:  DoStor=F MaxTD1= 5 Len=  102
 LDataN:  DoStor=T MaxTD1= 5 Len=  102
 NBasis=   410 RedAO= T  NBF=   410
 NBsUse=   410 1.00D-06 NBFU=   410
 Precomputing XC quadrature grid using
 IXCGrd= 2 IRadAn=           5 IRanWt=          -1 IRanGd=           0.
 Defaulting to unpruned grid for atomic number  53.
 NRdTot=    2150 NPtTot=      605966 NUsed=      615692 NTot=      615708
 NSgBfM=   435   435   435   435.
 Leave Link  302 at Fri Aug  1 09:51:38 2008, MaxMem=  183500800 cpu:      13.3
 (Enter /data/hamilton/dch0ik/g03/l303.exe)
 DipDrv:  MaxL=1.
 Leave Link  303 at Fri Aug  1 09:51:40 2008, MaxMem=  183500800 cpu:       0.4
 (Enter /data/hamilton/dch0ik/g03/l401.exe)
 Harris functional with IExCor=  402 diagonalized for initial guess.
 ExpMin= 2.97D-02 ExpMax= 1.11D+05 ExpMxC= 3.24D+03 IAcc=3 IRadAn=         5 AccDes= 0.00D+00
 HarFok:  IExCor= 402 AccDes= 0.00D+00 IRadAn=         5 IDoV=1
 ScaDFX=  1.000000  1.000000  1.000000  1.000000
 Defaulting to unpruned grid for atomic number  53.
 Defaulting to unpruned grid for atomic number  53.
 Harris En=  1678.29471886313    
 Initial guess orbital symmetries:
       Occupied  (A) (A) (A) (A) (A) (A) (A) (A) (A) (A) (A) (A)
                 (A) (A) (A) (A) (A) (A) (A) (A) (A) (A) (A) (A)
                 (A) (A) (A) (A) (A) (A) (A) (A) (A) (A) (A) (A)
                 (A) (A) (A) (A) (A) (A) (A) (A) (A) (A) (A) (A)
                 (A) (A) (A) (A) (A) (A) (A) (A) (A) (A) (A) (A)
                 (A) (A) (A)
       Virtual   (A) (A) (A) (A) (A) (A) (A) (A) (A) (A) (A) (A)
                 (A) (A) (A) (A) (A) (A) (A) (A) (A) (A) (A) (A)
                 (A) (A) (A) (A) (A) (A) (A) (A) (A) (A) (A) (A)
                 (A) (A) (A) (A) (A) (A) (A) (A) (A) (A) (A) (A)
                 (A) (A) (A) (A) (A) (A) (A) (A) (A) (A) (A) (A)
                 (A) (A) (A) (A) (A) (A) (A) (A) (A) (A) (A) (A)
                 (A) (A) (A) (A) (A) (A) (A) (A) (A) (A) (A) (A)
                 (A) (A) (A) (A) (A) (A) (A) (A) (A) (A) (A) (A)
                 (A) (A) (A) (A) (A) (A) (A) (A) (A) (A) (A) (A)
                 (A) (A) (A) (A) (A) (A) (A) (A) (A) (A) (A) (A)
                 (A) (A) (A) (A) (A) (A) (A) (A) (A) (A) (A) (A)
                 (A) (A) (A) (A) (A) (A) (A) (A) (A) (A) (A) (A)
                 (A) (A) (A) (A) (A) (A) (A) (A) (A) (A) (A) (A)
                 (A) (A) (A) (A) (A) (A) (A) (A) (A) (A) (A) (A)
                 (A) (A) (A) (A) (A) (A) (A) (A) (A) (A) (A) (A)
                 (A) (A) (A) (A) (A) (A) (A) (A) (A) (A) (A) (A)
                 (A) (A) (A) (A) (A) (A) (A) (A) (A) (A) (A) (A)
                 (A) (A) (A) (A) (A) (A) (A) (A) (A) (A) (A) (A)
                 (A) (A) (A) (A) (A) (A) (A) (A) (A) (A) (A) (A)
                 (A) (A) (A) (A) (A) (A) (A) (A) (A) (A) (A) (A)
                 (A) (A) (A) (A) (A) (A) (A) (A) (A) (A) (A) (A)
                 (A) (A) (A) (A) (A) (A) (A) (A) (A) (A) (A) (A)
                 (A) (A) (A) (A) (A) (A) (A) (A) (A) (A) (A) (A)
                 (A) (A) (A) (A) (A) (A) (A) (A) (A) (A) (A) (A)
                 (A) (A) (A) (A) (A) (A) (A) (A) (A) (A) (A) (A)
                 (A) (A) (A) (A) (A) (A) (A) (A) (A) (A) (A) (A)
                 (A) (A) (A) (A) (A) (A) (A) (A) (A) (A) (A) (A)
                 (A) (A) (A) (A) (A) (A) (A) (A) (A) (A) (A) (A)
                 (A) (A) (A) (A) (A) (A) (A) (A) (A) (A) (A)
 The electronic state of the initial guess is 1-A.
 Leave Link  401 at Fri Aug  1 09:52:48 2008, MaxMem=  183500800 cpu:     129.3
 (Enter /data/hamilton/dch0ik/g03/linda-exe/l502.exel)
 Closed shell SCF:
 Requested convergence on RMS density matrix=1.00D-08 within 128 cycles.
 Requested convergence on MAX density matrix=1.00D-06.
 Requested convergence on             energy=1.00D-06.
 No special actions if energy rises.
 Using DIIS extrapolation, IDIIS=  1040.
 Integral symmetry usage will be decided dynamically.
       615691 words used for storage of precomputed grid.
 IEnd=   1255389 IEndB=   1255389 NGot= 183500800 MDV= 182452584
 LenX= 182452584
 Fock matrices will be formed incrementally for  20 cycles.

 Cycle   1  Pass 1  IDiag  1:
 Petite list used in FoFDir.
 MinBra= 0 MaxBra= 2 Meth= 1.
 IRaf=       0 NMat=   1 IRICut=       1 DoRegI=T DoRafI=F ISym2E= 1 JSym2E=1.
 Defaulting to unpruned grid for atomic number  53.
 Defaulting to unpruned grid for atomic number  53.
 E= -1389.06911004508    
 DIIS: error= 1.10D+00 at cycle   1 NSaved=   1.
 NSaved= 1 IEnMin= 1 EnMin= -1389.06911004508     IErMin= 1 ErrMin= 1.10D+00
 ErrMax= 1.10D+00 EMaxC= 1.00D-01 BMatC= 8.22D+01 BMatP= 8.22D+01
 IDIUse=3 WtCom= 0.00D+00 WtEn= 1.00D+00
 Coeff-Com:  0.100D+01
 Coeff-En:   0.100D+01
 Coeff:      0.100D+01
 Gap=     0.221 Goal=   None    Shift=    0.000
 GapD=    0.221 DampG=1.000 DampE=0.250 DampFc=0.2500 IDamp=-1.
 Damping current iteration by 2.50D-01
 RMSDP=4.19D-02 MaxDP=7.05D+00              OVMax= 5.18D-01

 Cycle   2  Pass 1  IDiag  1:
 RMSU=  1.04D-02    CP:  9.66D-01
 E= -1393.59542468537     Delta-E=       -4.526314640294 Rises=F Damp=T
 DIIS: error= 7.91D-01 at cycle   2 NSaved=   2.
 NSaved= 2 IEnMin= 2 EnMin= -1393.59542468537     IErMin= 2 ErrMin= 7.91D-01
 ErrMax= 7.91D-01 EMaxC= 1.00D-01 BMatC= 3.91D+01 BMatP= 8.22D+01
 IDIUse=3 WtCom= 0.00D+00 WtEn= 1.00D+00
 Coeff-Com: -0.213D+01 0.313D+01
 Coeff-En:   0.000D+00 0.100D+01
 Coeff:      0.000D+00 0.100D+01
 Gap=     0.216 Goal=   None    Shift=    0.000
 RMSDP=1.44D-02 MaxDP=1.81D+00 DE=-4.53D+00 OVMax= 1.91D-01

 Cycle   3  Pass 1  IDiag  1:
 RMSU=  1.13D-02    CP:  7.83D-01  1.51D+00
 E= -1403.38930664683     Delta-E=       -9.793881961458 Rises=F Damp=F
 DIIS: error= 1.77D-01 at cycle   3 NSaved=   3.
 NSaved= 3 IEnMin= 3 EnMin= -1403.38930664683     IErMin= 3 ErrMin= 1.77D-01
 ErrMax= 1.77D-01 EMaxC= 1.00D-01 BMatC= 2.47D+00 BMatP= 3.91D+01
 IDIUse=3 WtCom= 0.00D+00 WtEn= 1.00D+00
 Coeff-Com:  0.114D+00 0.401D-02 0.882D+00
 Coeff-En:   0.000D+00 0.000D+00 0.100D+01
 Coeff:      0.000D+00 0.000D+00 0.100D+01
 Gap=     0.168 Goal=   None    Shift=    0.000
 RMSDP=2.13D-02 MaxDP=3.25D+00 DE=-9.79D+00 OVMax= 1.49D-01

 Cycle   4  Pass 1  IDiag  1:
 RMSU=  9.36D-03    CP:  9.02D-01 -2.54D-01  7.47D-01
 E= -1403.80233844654     Delta-E=       -0.413031799713 Rises=F Damp=F
 DIIS: error= 6.97D-02 at cycle   4 NSaved=   4.
 NSaved= 4 IEnMin= 4 EnMin= -1403.80233844654     IErMin= 4 ErrMin= 6.97D-02
 ErrMax= 6.97D-02 EMaxC= 1.00D-01 BMatC= 8.26D-01 BMatP= 2.47D+00
 IDIUse=3 WtCom= 3.03D-01 WtEn= 6.97D-01
 Coeff-Com: -0.669D+00 0.932D+00 0.847D-01 0.653D+00
 Coeff-En:   0.000D+00 0.000D+00 0.295D+00 0.705D+00
 Coeff:     -0.203D+00 0.283D+00 0.231D+00 0.689D+00
 Gap=     0.238 Goal=   None    Shift=    0.000
 RMSDP=1.68D-02 MaxDP=2.68D+00 DE=-4.13D-01 OVMax= 1.50D-01

 Cycle   5  Pass 1  IDiag  1:
 RMSU=  4.22D-03    CP:  8.51D-01  1.19D+00  5.67D-01  4.28D-01
 E= -1404.13735995282     Delta-E=       -0.335021506276 Rises=F Damp=F
 DIIS: error= 1.11D-02 at cycle   5 NSaved=   5.
 NSaved= 5 IEnMin= 5 EnMin= -1404.13735995282     IErMin= 5 ErrMin= 1.11D-02
 ErrMax= 1.11D-02 EMaxC= 1.00D-01 BMatC= 1.50D-01 BMatP= 8.26D-01
 IDIUse=3 WtCom= 8.89D-01 WtEn= 1.11D-01
 Coeff-Com: -0.176D+00 0.241D+00 0.125D+00 0.436D+00 0.375D+00
 Coeff-En:   0.000D+00 0.000D+00 0.000D+00 0.202D+00 0.798D+00
 Coeff:     -0.157D+00 0.215D+00 0.111D+00 0.410D+00 0.421D+00
 Gap=     0.199 Goal=   None    Shift=    0.000
 RMSDP=8.49D-03 MaxDP=1.88D+00 DE=-3.35D-01 OVMax= 7.68D-02

 Cycle   6  Pass 1  IDiag  1:
 RMSU=  1.17D-03    CP:  8.05D-01  5.50D-01  9.16D-01  4.02D-01  3.66D-01
 E= -1404.26013159994     Delta-E=       -0.122771647124 Rises=F Damp=F
 DIIS: error= 2.06D-03 at cycle   6 NSaved=   6.
 NSaved= 6 IEnMin= 6 EnMin= -1404.26013159994     IErMin= 6 ErrMin= 2.06D-03
 ErrMax= 2.06D-03 EMaxC= 1.00D-01 BMatC= 6.58D-03 BMatP= 1.50D-01
 IDIUse=3 WtCom= 9.79D-01 WtEn= 2.06D-02
 Coeff-Com: -0.137D+00 0.187D+00 0.340D-01 0.189D+00 0.193D+00 0.533D+00
 Coeff-En:   0.000D+00 0.000D+00 0.000D+00 0.000D+00 0.000D+00 0.100D+01
 Coeff:     -0.134D+00 0.183D+00 0.333D-01 0.185D+00 0.189D+00 0.543D+00
 Gap=     0.191 Goal=   None    Shift=    0.000
 RMSDP=7.93D-04 MaxDP=1.01D-01 DE=-1.23D-01 OVMax= 2.29D-02

 Cycle   7  Pass 1  IDiag  1:
 RMSU=  3.69D-04    CP:  8.15D-01  5.64D-01  9.07D-01  4.14D-01  4.05D-01
                    CP:  5.66D-01
 E= -1404.26547426760     Delta-E=       -0.005342667652 Rises=F Damp=F
 DIIS: error= 2.24D-03 at cycle   7 NSaved=   7.
 NSaved= 7 IEnMin= 7 EnMin= -1404.26547426760     IErMin= 6 ErrMin= 2.06D-03
 ErrMax= 2.24D-03 EMaxC= 1.00D-01 BMatC= 9.77D-04 BMatP= 6.58D-03
 IDIUse=3 WtCom= 9.79D-01 WtEn= 2.06D-02
 Coeff-Com: -0.833D-01 0.114D+00 0.952D-02 0.729D-01 0.647D-01 0.326D+00
 Coeff-Com:  0.496D+00
 Coeff-En:   0.000D+00 0.000D+00 0.000D+00 0.000D+00 0.000D+00 0.000D+00
 Coeff-En:   0.100D+01
 Coeff:     -0.815D-01 0.112D+00 0.933D-02 0.714D-01 0.634D-01 0.319D+00
 Coeff:      0.507D+00
 Gap=     0.190 Goal=   None    Shift=    0.000
 RMSDP=3.46D-04 MaxDP=6.01D-02 DE=-5.34D-03 OVMax= 6.60D-03

 Cycle   8  Pass 1  IDiag  1:
 RMSU=  8.74D-05    CP:  8.11D-01  5.50D-01  9.21D-01  4.09D-01  3.67D-01
                    CP:  6.68D-01  9.69D-01
 E= -1404.26605588606     Delta-E=       -0.000581618466 Rises=F Damp=F
 DIIS: error= 1.32D-03 at cycle   8 NSaved=   8.
 NSaved= 8 IEnMin= 8 EnMin= -1404.26605588606     IErMin= 8 ErrMin= 1.32D-03
 ErrMax= 1.32D-03 EMaxC= 1.00D-01 BMatC= 1.95D-04 BMatP= 9.77D-04
 IDIUse=3 WtCom= 9.87D-01 WtEn= 1.32D-02
 Coeff-Com: -0.259D-01 0.354D-01 0.257D-02 0.829D-02-0.230D-03 0.835D-01
 Coeff-Com:  0.247D+00 0.649D+00
 Coeff-En:   0.000D+00 0.000D+00 0.000D+00 0.000D+00 0.000D+00 0.000D+00
 Coeff-En:   0.000D+00 0.100D+01
 Coeff:     -0.256D-01 0.349D-01 0.254D-02 0.819D-02-0.227D-03 0.824D-01
 Coeff:      0.244D+00 0.653D+00
 Gap=     0.190 Goal=   None    Shift=    0.000
 RMSDP=2.12D-04 MaxDP=3.52D-02 DE=-5.82D-04 OVMax= 1.50D-03

 Cycle   9  Pass 1  IDiag  1:
 RMSU=  3.44D-05    CP:  8.10D-01  5.67D-01  9.20D-01  4.00D-01  3.69D-01
                    CP:  6.88D-01  9.47D-01  9.06D-01
 E= -1404.26613740542     Delta-E=       -0.000081519363 Rises=F Damp=F
 DIIS: error= 3.56D-04 at cycle   9 NSaved=   9.
 NSaved= 9 IEnMin= 9 EnMin= -1404.26613740542     IErMin= 9 ErrMin= 3.56D-04
 ErrMax= 3.56D-04 EMaxC= 1.00D-01 BMatC= 1.76D-05 BMatP= 1.95D-04
 IDIUse=3 WtCom= 9.96D-01 WtEn= 3.56D-03
 Coeff-Com: -0.550D-02 0.736D-02 0.137D-02-0.186D-02-0.472D-02 0.169D-01
 Coeff-Com:  0.659D-01 0.294D+00 0.626D+00
 Coeff-En:   0.000D+00 0.000D+00 0.000D+00 0.000D+00 0.000D+00 0.000D+00
 Coeff-En:   0.000D+00 0.000D+00 0.100D+01
 Coeff:     -0.548D-02 0.733D-02 0.137D-02-0.185D-02-0.470D-02 0.168D-01
 Coeff:      0.657D-01 0.293D+00 0.628D+00
 Gap=     0.190 Goal=   None    Shift=    0.000
 RMSDP=4.34D-05 MaxDP=6.65D-03 DE=-8.15D-05 OVMax= 7.66D-04

 Cycle  10  Pass 1  IDiag  1:
 RMSU=  1.18D-05    CP:  8.09D-01  5.70D-01  9.21D-01  3.98D-01  3.67D-01
                    CP:  6.83D-01  9.60D-01  9.70D-01  1.04D+00
 E= -1404.26614207235     Delta-E=       -0.000004666923 Rises=F Damp=F
 DIIS: error= 7.55D-05 at cycle  10 NSaved=  10.
 NSaved=10 IEnMin=10 EnMin= -1404.26614207235     IErMin=10 ErrMin= 7.55D-05
 ErrMax= 7.55D-05 EMaxC= 1.00D-01 BMatC= 3.90D-06 BMatP= 1.76D-05
 IDIUse=1 WtCom= 1.00D+00 WtEn= 0.00D+00
 Coeff-Com:  0.408D-03-0.687D-03 0.710D-03-0.186D-02-0.214D-02-0.179D-03
 Coeff-Com: -0.307D-02 0.582D-01 0.471D+00 0.477D+00
 Coeff:      0.408D-03-0.687D-03 0.710D-03-0.186D-02-0.214D-02-0.179D-03
 Coeff:     -0.307D-02 0.582D-01 0.471D+00 0.477D+00
 Gap=     0.190 Goal=   None    Shift=    0.000
 RMSDP=2.11D-05 MaxDP=3.90D-03 DE=-4.67D-06 OVMax= 4.31D-04

 Cycle  11  Pass 1  IDiag  1:
 RMSU=  4.76D-06    CP:  8.09D-01  5.69D-01  9.22D-01  3.98D-01  3.65D-01
                    CP:  6.83D-01  9.65D-01  1.00D+00  1.10D+00  7.62D-01
 E= -1404.26614482881     Delta-E=       -0.000002756467 Rises=F Damp=F
 DIIS: error= 7.26D-06 at cycle  11 NSaved=  11.
 NSaved=11 IEnMin=11 EnMin= -1404.26614482881     IErMin=11 ErrMin= 7.26D-06
 ErrMax= 7.26D-06 EMaxC= 1.00D-01 BMatC= 1.10D-07 BMatP= 3.90D-06
 IDIUse=1 WtCom= 1.00D+00 WtEn= 0.00D+00
 Coeff-Com: -0.405D-04 0.185D-04 0.190D-03-0.239D-03-0.459D-03 0.280D-03
 Coeff-Com: -0.539D-02 0.185D-02 0.164D+00 0.223D+00 0.617D+00
 Coeff:     -0.405D-04 0.185D-04 0.190D-03-0.239D-03-0.459D-03 0.280D-03
 Coeff:     -0.539D-02 0.185D-02 0.164D+00 0.223D+00 0.617D+00
 Gap=     0.190 Goal=   None    Shift=    0.000
 RMSDP=2.53D-06 MaxDP=3.42D-04 DE=-2.76D-06 OVMax= 6.97D-05

 Cycle  12  Pass 1  IDiag  1:
 RMSU=  1.41D-06    CP:  8.09D-01  5.69D-01  9.22D-01  3.98D-01  3.65D-01
                    CP:  6.83D-01  9.63D-01  9.97D-01  1.11D+00  7.54D-01
                    CP:  8.50D-01
 E= -1404.26614491124     Delta-E=       -0.000000082429 Rises=F Damp=F
 DIIS: error= 3.57D-06 at cycle  12 NSaved=  12.
 NSaved=12 IEnMin=12 EnMin= -1404.26614491124     IErMin=12 ErrMin= 3.57D-06
 ErrMax= 3.57D-06 EMaxC= 1.00D-01 BMatC= 1.49D-08 BMatP= 1.10D-07
 IDIUse=1 WtCom= 1.00D+00 WtEn= 0.00D+00
 Coeff-Com: -0.447D-04 0.535D-04 0.286D-04-0.182D-04-0.164D-03-0.133D-03
 Coeff-Com: -0.337D-02-0.461D-02 0.506D-01 0.819D-01 0.336D+00 0.540D+00
 Coeff:     -0.447D-04 0.535D-04 0.286D-04-0.182D-04-0.164D-03-0.133D-03
 Coeff:     -0.337D-02-0.461D-02 0.506D-01 0.819D-01 0.336D+00 0.540D+00
 Gap=     0.190 Goal=   None    Shift=    0.000
 RMSDP=1.29D-06 MaxDP=2.00D-04 DE=-8.24D-08 OVMax= 3.63D-05

 Cycle  13  Pass 1  IDiag  1:
 RMSU=  3.76D-07    CP:  8.09D-01  5.69D-01  9.22D-01  3.98D-01  3.65D-01
                    CP:  6.83D-01  9.63D-01  9.98D-01  1.11D+00  7.55D-01
                    CP:  8.15D-01  6.98D-01
 E= -1404.26614492673     Delta-E=       -0.000000015487 Rises=F Damp=F
 DIIS: error= 1.05D-06 at cycle  13 NSaved=  13.
 NSaved=13 IEnMin=13 EnMin= -1404.26614492673     IErMin=13 ErrMin= 1.05D-06
 ErrMax= 1.05D-06 EMaxC= 1.00D-01 BMatC= 6.90D-10 BMatP= 1.49D-08
 IDIUse=1 WtCom= 1.00D+00 WtEn= 0.00D+00
 Coeff-Com: -0.860D-05 0.105D-04 0.808D-06-0.411D-05-0.525D-04-0.171D-03
 Coeff-Com: -0.135D-02-0.242D-02 0.134D-01 0.232D-01 0.107D+00 0.229D+00
 Coeff-Com:  0.631D+00
 Coeff:     -0.860D-05 0.105D-04 0.808D-06-0.411D-05-0.525D-04-0.171D-03
 Coeff:     -0.135D-02-0.242D-02 0.134D-01 0.232D-01 0.107D+00 0.229D+00
 Coeff:      0.631D+00
 Gap=     0.190 Goal=   None    Shift=    0.000
 RMSDP=3.81D-07 MaxDP=6.05D-05 DE=-1.55D-08 OVMax= 3.97D-06

 Cycle  14  Pass 1  IDiag  1:
 RMSU=  1.48D-07    CP:  8.09D-01  5.69D-01  9.22D-01  3.98D-01  3.65D-01
                    CP:  6.84D-01  9.63D-01  9.98D-01  1.12D+00  7.54D-01
                    CP:  8.17D-01  7.00D-01  8.11D-01
 E= -1404.26614492725     Delta-E=       -0.000000000521 Rises=F Damp=F
 DIIS: error= 2.22D-07 at cycle  14 NSaved=  14.
 NSaved=14 IEnMin=14 EnMin= -1404.26614492725     IErMin=14 ErrMin= 2.22D-07
 ErrMax= 2.22D-07 EMaxC= 1.00D-01 BMatC= 7.23D-11 BMatP= 6.90D-10
 IDIUse=1 WtCom= 1.00D+00 WtEn= 0.00D+00
 Coeff-Com: -0.250D-05 0.335D-05-0.123D-05 0.139D-05-0.103D-04-0.856D-04
 Coeff-Com: -0.447D-03-0.902D-03 0.303D-02 0.553D-02 0.275D-01 0.731D-01
 Coeff-Com:  0.319D+00 0.573D+00
 Coeff:     -0.250D-05 0.335D-05-0.123D-05 0.139D-05-0.103D-04-0.856D-04
 Coeff:     -0.447D-03-0.902D-03 0.303D-02 0.553D-02 0.275D-01 0.731D-01
 Coeff:      0.319D+00 0.573D+00
 Gap=     0.190 Goal=   None    Shift=    0.000
 RMSDP=1.05D-07 MaxDP=1.59D-05 DE=-5.21D-10 OVMax= 1.14D-06

 Cycle  15  Pass 1  IDiag  1:
 RMSU=  3.68D-08    CP:  8.09D-01  5.69D-01  9.22D-01  3.98D-01  3.65D-01
                    CP:  6.84D-01  9.63D-01  9.98D-01  1.12D+00  7.55D-01
                    CP:  8.20D-01  6.99D-01  8.01D-01  7.80D-01
 E= -1404.26614492732     Delta-E=       -0.000000000066 Rises=F Damp=F
 DIIS: error= 5.41D-08 at cycle  15 NSaved=  15.
 NSaved=15 IEnMin=15 EnMin= -1404.26614492732     IErMin=15 ErrMin= 5.41D-08
 ErrMax= 5.41D-08 EMaxC= 1.00D-01 BMatC= 4.63D-12 BMatP= 7.23D-11
 IDIUse=1 WtCom= 1.00D+00 WtEn= 0.00D+00
 Coeff-Com:  0.956D-06-0.126D-05-0.521D-06-0.685D-07-0.365D-07-0.312D-04
 Coeff-Com: -0.949D-04-0.176D-03 0.225D-03 0.429D-03 0.268D-02 0.122D-01
 Coeff-Com:  0.874D-01 0.257D+00 0.640D+00
 Coeff:      0.956D-06-0.126D-05-0.521D-06-0.685D-07-0.365D-07-0.312D-04
 Coeff:     -0.949D-04-0.176D-03 0.225D-03 0.429D-03 0.268D-02 0.122D-01
 Coeff:      0.874D-01 0.257D+00 0.640D+00
 Gap=     0.190 Goal=   None    Shift=    0.000
 RMSDP=4.47D-08 MaxDP=8.36D-06 DE=-6.59D-11 OVMax= 3.04D-07

 Cycle  16  Pass 1  IDiag  1:
 RMSU=  1.12D-08    CP:  8.09D-01  5.69D-01  9.22D-01  3.98D-01  3.65D-01
                    CP:  6.84D-01  9.63D-01  9.98D-01  1.12D+00  7.55D-01
                    CP:  8.19D-01  7.00D-01  8.12D-01  7.25D-01  8.68D-01
 E= -1404.26614492732     Delta-E=       -0.000000000002 Rises=F Damp=F
 DIIS: error= 1.82D-08 at cycle  16 NSaved=  16.
 NSaved=16 IEnMin=16 EnMin= -1404.26614492732     IErMin=16 ErrMin= 1.82D-08
 ErrMax= 1.82D-08 EMaxC= 1.00D-01 BMatC= 3.59D-13 BMatP= 4.63D-12
 IDIUse=1 WtCom= 1.00D+00 WtEn= 0.00D+00
 Coeff-Com:  0.613D-06-0.815D-06-0.161D-06-0.742D-07 0.767D-06-0.878D-05
 Coeff-Com: -0.186D-04-0.214D-04-0.632D-04-0.120D-03-0.323D-03 0.146D-02
 Coeff-Com:  0.200D-01 0.794D-01 0.294D+00 0.606D+00
 Coeff:      0.613D-06-0.815D-06-0.161D-06-0.742D-07 0.767D-06-0.878D-05
 Coeff:     -0.186D-04-0.214D-04-0.632D-04-0.120D-03-0.323D-03 0.146D-02
 Coeff:      0.200D-01 0.794D-01 0.294D+00 0.606D+00
 Gap=     0.190 Goal=   None    Shift=    0.000
 RMSDP=1.16D-08 MaxDP=2.21D-06 DE=-2.27D-12 OVMax= 9.44D-08

 Cycle  17  Pass 1  IDiag  1:
 RMSU=  2.63D-09    CP:  8.09D-01  5.69D-01  9.22D-01  3.98D-01  3.65D-01
                    CP:  6.84D-01  9.63D-01  9.98D-01  1.12D+00  7.55D-01
                    CP:  8.19D-01  7.01D-01  8.14D-01  7.47D-01  8.55D-01
                    CP:  8.22D-01
 E= -1404.26614492734     Delta-E=       -0.000000000018 Rises=F Damp=F
 DIIS: error= 1.07D-08 at cycle  17 NSaved=  17.
 NSaved=17 IEnMin=17 EnMin= -1404.26614492734     IErMin=17 ErrMin= 1.07D-08
 ErrMax= 1.07D-08 EMaxC= 1.00D-01 BMatC= 5.90D-14 BMatP= 3.59D-13
 IDIUse=1 WtCom= 1.00D+00 WtEn= 0.00D+00
 Coeff-Com:  0.197D-06-0.263D-06-0.302D-07-0.378D-07 0.360D-06-0.755D-06
 Coeff-Com:  0.101D-05 0.126D-04-0.517D-04-0.106D-03-0.440D-03-0.577D-03
 Coeff-Com: -0.831D-04 0.102D-01 0.760D-01 0.312D+00 0.603D+00
 Coeff:      0.197D-06-0.263D-06-0.302D-07-0.378D-07 0.360D-06-0.755D-06
 Coeff:      0.101D-05 0.126D-04-0.517D-04-0.106D-03-0.440D-03-0.577D-03
 Coeff:     -0.831D-04 0.102D-01 0.760D-01 0.312D+00 0.603D+00
 Gap=     0.190 Goal=   None    Shift=    0.000
 RMSDP=5.08D-09 MaxDP=9.52D-07 DE=-1.80D-11 OVMax= 4.07D-08

 SCF Done:  E(RB+HF-LYP) =  -1404.26614493     A.U. after   17 cycles
             Convg  =    0.5081D-08             -V/T =  2.0327
             S**2   =   0.0000
 KE= 1.359863203167D+03 PE=-5.632346453667D+03 EE= 1.712521781931D+03
 Leave Link  502 at Fri Aug  1 10:46:43 2008, MaxMem=  183500800 cpu:    6401.8
 (Enter /data/hamilton/dch0ik/g03/l601.exe)
 Copying SCF densities to generalized density rwf, ISCF=0 IROHF=0.

 **********************************************************************

            Population analysis using the SCF density.

 **********************************************************************

 Orbital symmetries:
       Occupied  (A) (A) (A) (A) (A) (A) (A) (A) (A) (A) (A) (A)
                 (A) (A) (A) (A) (A) (A) (A) (A) (A) (A) (A) (A)
                 (A) (A) (A) (A) (A) (A) (A) (A) (A) (A) (A) (A)
                 (A) (A) (A) (A) (A) (A) (A) (A) (A) (A) (A) (A)
                 (A) (A) (A) (A) (A) (A) (A) (A) (A) (A) (A) (A)
                 (A) (A) (A)
       Virtual   (A) (A) (A) (A) (A) (A) (A) (A) (A) (A) (A) (A)
                 (A) (A) (A) (A) (A) (A) (A) (A) (A) (A) (A) (A)
                 (A) (A) (A) (A) (A) (A) (A) (A) (A) (A) (A) (A)
                 (A) (A) (A) (A) (A) (A) (A) (A) (A) (A) (A) (A)
                 (A) (A) (A) (A) (A) (A) (A) (A) (A) (A) (A) (A)
                 (A) (A) (A) (A) (A) (A) (A) (A) (A) (A) (A) (A)
                 (A) (A) (A) (A) (A) (A) (A) (A) (A) (A) (A) (A)
                 (A) (A) (A) (A) (A) (A) (A) (A) (A) (A) (A) (A)
                 (A) (A) (A) (A) (A) (A) (A) (A) (A) (A) (A) (A)
                 (A) (A) (A) (A) (A) (A) (A) (A) (A) (A) (A) (A)
                 (A) (A) (A) (A) (A) (A) (A) (A) (A) (A) (A) (A)
                 (A) (A) (A) (A) (A) (A) (A) (A) (A) (A) (A) (A)
                 (A) (A) (A) (A) (A) (A) (A) (A) (A) (A) (A) (A)
                 (A) (A) (A) (A) (A) (A) (A) (A) (A) (A) (A) (A)
                 (A) (A) (A) (A) (A) (A) (A) (A) (A) (A) (A) (A)
                 (A) (A) (A) (A) (A) (A) (A) (A) (A) (A) (A) (A)
                 (A) (A) (A) (A) (A) (A) (A) (A) (A) (A) (A) (A)
                 (A) (A) (A) (A) (A) (A) (A) (A) (A) (A) (A) (A)
                 (A) (A) (A) (A) (A) (A) (A) (A) (A) (A) (A) (A)
                 (A) (A) (A) (A) (A) (A) (A) (A) (A) (A) (A) (A)
                 (A) (A) (A) (A) (A) (A) (A) (A) (A) (A) (A) (A)
                 (A) (A) (A) (A) (A) (A) (A) (A) (A) (A) (A) (A)
                 (A) (A) (A) (A) (A) (A) (A) (A) (A) (A) (A) (A)
                 (A) (A) (A) (A) (A) (A) (A) (A) (A) (A) (A) (A)
                 (A) (A) (A) (A) (A) (A) (A) (A) (A) (A) (A) (A)
                 (A) (A) (A) (A) (A) (A) (A) (A) (A) (A) (A) (A)
                 (A) (A) (A) (A) (A) (A) (A) (A) (A) (A) (A) (A)
                 (A) (A) (A) (A) (A) (A) (A) (A) (A) (A) (A) (A)
                 (A) (A) (A) (A) (A) (A) (A) (A) (A) (A) (A)
 The electronic state is 1-A.
 Alpha  occ. eigenvalues --  -88.90385 -77.23603 -19.16299 -19.16260 -19.15252
 Alpha  occ. eigenvalues --  -19.12910 -19.12840 -14.41617 -10.27032 -10.26760
 Alpha  occ. eigenvalues --  -10.26447  -7.96495  -6.68481  -5.92855  -5.92606
 Alpha  occ. eigenvalues --   -5.91905  -4.84913  -4.84703  -4.84571  -2.15654
 Alpha  occ. eigenvalues --   -2.15278  -2.15242  -2.14198  -2.14197  -1.03262
 Alpha  occ. eigenvalues --   -1.02762  -1.01699  -1.01037  -0.96930  -0.95946
 Alpha  occ. eigenvalues --   -0.85619  -0.75853  -0.73520  -0.67772  -0.61666
 Alpha  occ. eigenvalues --   -0.57994  -0.57936  -0.55203  -0.54267  -0.53562
 Alpha  occ. eigenvalues --   -0.52575  -0.51126  -0.46150  -0.44873  -0.43803
 Alpha  occ. eigenvalues --   -0.43348  -0.42568  -0.41300  -0.40006  -0.39728
 Alpha  occ. eigenvalues --   -0.38969  -0.38234  -0.34774  -0.33973  -0.33148
 Alpha  occ. eigenvalues --   -0.32554  -0.32063  -0.31335  -0.30634  -0.30062
 Alpha  occ. eigenvalues --   -0.27598  -0.27328  -0.26403
 Alpha virt. eigenvalues --   -0.07418  -0.03177  -0.02586  -0.01672  -0.01393
 Alpha virt. eigenvalues --    0.00291   0.00807   0.00921   0.01996   0.02331
 Alpha virt. eigenvalues --    0.02960   0.04048   0.04563   0.04668   0.05280
 Alpha virt. eigenvalues --    0.05486   0.06171   0.06560   0.07173   0.07272
 Alpha virt. eigenvalues --    0.07539   0.08032   0.08289   0.08634   0.08721
 Alpha virt. eigenvalues --    0.09528   0.09788   0.10011   0.10336   0.10869
 Alpha virt. eigenvalues --    0.11285   0.11819   0.11996   0.12328   0.12611
 Alpha virt. eigenvalues --    0.12957   0.13776   0.14402   0.14987   0.15400
 Alpha virt. eigenvalues --    0.15916   0.16389   0.16584   0.17091   0.17302
 Alpha virt. eigenvalues --    0.17946   0.18582   0.18770   0.19328   0.19851
 Alpha virt. eigenvalues --    0.20208   0.20464   0.20972   0.21120   0.21481
 Alpha virt. eigenvalues --    0.21839   0.22493   0.22605   0.23114   0.23663
 Alpha virt. eigenvalues --    0.24151   0.24620   0.25199   0.25753   0.26229
 Alpha virt. eigenvalues --    0.26828   0.27357   0.27625   0.28431   0.28600
 Alpha virt. eigenvalues --    0.29511   0.29913   0.30488   0.30656   0.31224
 Alpha virt. eigenvalues --    0.31997   0.32487   0.32560   0.32872   0.33166
 Alpha virt. eigenvalues --    0.33665   0.34876   0.34945   0.35929   0.36278
 Alpha virt. eigenvalues --    0.36666   0.37377   0.38182   0.38478   0.38675
 Alpha virt. eigenvalues --    0.39694   0.40412   0.40535   0.40819   0.42032
 Alpha virt. eigenvalues --    0.42823   0.43287   0.44052   0.44340   0.44639
 Alpha virt. eigenvalues --    0.45061   0.45521   0.46557   0.46767   0.47273
 Alpha virt. eigenvalues --    0.48516   0.48720   0.49134   0.49579   0.50077
 Alpha virt. eigenvalues --    0.50701   0.51116   0.52064   0.52542   0.52769
 Alpha virt. eigenvalues --    0.53595   0.53834   0.55159   0.55866   0.56027
 Alpha virt. eigenvalues --    0.56643   0.56822   0.57438   0.58102   0.59163
 Alpha virt. eigenvalues --    0.59744   0.61023   0.62080   0.62763   0.63519
 Alpha virt. eigenvalues --    0.64256   0.64876   0.65668   0.65894   0.66846
 Alpha virt. eigenvalues --    0.67366   0.68327   0.69108   0.70504   0.71063
 Alpha virt. eigenvalues --    0.71407   0.72435   0.73634   0.74260   0.74981
 Alpha virt. eigenvalues --    0.76202   0.77025   0.77551   0.79351   0.79438
 Alpha virt. eigenvalues --    0.79684   0.80123   0.81654   0.82582   0.83248
 Alpha virt. eigenvalues --    0.83815   0.84827   0.85401   0.86580   0.86925
 Alpha virt. eigenvalues --    0.87725   0.89287   0.89560   0.90725   0.91287
 Alpha virt. eigenvalues --    0.93400   0.93708   0.94341   0.95219   0.95969
 Alpha virt. eigenvalues --    0.96880   0.97477   0.98917   0.99297   0.99900
 Alpha virt. eigenvalues --    1.01822   1.01871   1.02113   1.03346   1.04398
 Alpha virt. eigenvalues --    1.04845   1.05630   1.06924   1.07115   1.08335
 Alpha virt. eigenvalues --    1.08770   1.09770   1.10265   1.11013   1.11306
 Alpha virt. eigenvalues --    1.13731   1.14329   1.15133   1.15849   1.16985
 Alpha virt. eigenvalues --    1.17936   1.18256   1.19433   1.20611   1.21505
 Alpha virt. eigenvalues --    1.21919   1.22328   1.24656   1.25357   1.27599
 Alpha virt. eigenvalues --    1.28226   1.30736   1.31493   1.32124   1.33376
 Alpha virt. eigenvalues --    1.35485   1.36507   1.37513   1.39216   1.40349
 Alpha virt. eigenvalues --    1.41046   1.43163   1.44060   1.46131   1.46927
 Alpha virt. eigenvalues --    1.49727   1.50328   1.53561   1.54541   1.56156
 Alpha virt. eigenvalues --    1.59044   1.59866   1.60900   1.61695   1.63612
 Alpha virt. eigenvalues --    1.66440   1.66941   1.68209   1.69058   1.70401
 Alpha virt. eigenvalues --    1.71789   1.72955   1.73916   1.75190   1.75710
 Alpha virt. eigenvalues --    1.77340   1.79048   1.79627   1.80334   1.81299
 Alpha virt. eigenvalues --    1.82022   1.85036   1.86405   1.88322   1.89584
 Alpha virt. eigenvalues --    1.89921   1.92013   1.93293   1.94748   1.95746
 Alpha virt. eigenvalues --    1.98397   1.99795   2.00264   2.01201   2.02434
 Alpha virt. eigenvalues --    2.03957   2.06048   2.08233   2.10206   2.11530
 Alpha virt. eigenvalues --    2.12032   2.13311   2.15705   2.17058   2.19357
 Alpha virt. eigenvalues --    2.20397   2.22359   2.24755   2.26177   2.27522
 Alpha virt. eigenvalues --    2.29809   2.32000   2.34498   2.36509   2.39602
 Alpha virt. eigenvalues --    2.42794   2.44821   2.48239   2.50180   2.51838
 Alpha virt. eigenvalues --    2.52959   2.55174   2.57291   2.59716   2.60229
 Alpha virt. eigenvalues --    2.62202   2.62842   2.63890   2.66771   2.68615
 Alpha virt. eigenvalues --    2.70771   2.74949   2.77013   2.78226   2.81038
 Alpha virt. eigenvalues --    2.84383   2.86515   2.88577   2.94160   3.02211
 Alpha virt. eigenvalues --    3.15047   3.33011   3.35217   3.35959   3.36947
 Alpha virt. eigenvalues --    3.37293   3.39157   3.40155   3.41119   3.41996
 Alpha virt. eigenvalues --    3.42701   3.44937   3.46290   3.47746   3.48543
 Alpha virt. eigenvalues --    3.51398   3.51880   3.52647   3.55436   3.58499
 Alpha virt. eigenvalues --    3.61747   3.69157   3.78376   3.80715   3.82182
 Alpha virt. eigenvalues --    3.99753   4.01554   4.02416   4.62829   4.64885
 Alpha virt. eigenvalues --    4.80938   4.84102   4.93049   5.79909   5.84063
 Alpha virt. eigenvalues --    6.01029  13.77777  13.79286  13.91637  13.93818
 Alpha virt. eigenvalues --   14.04872  22.30643
          Condensed to atoms (all electrons):
              1          2          3          4          5          6
     1  P   13.726440  -0.207919  -0.203858  -0.073895  -0.041750   0.140678
     2  O   -0.207919   9.053715   0.076912  -0.151054   0.047635   0.044957
     3  O   -0.203858   0.076912   8.932880  -0.015272   0.010720   0.035502
     4  N   -0.073895  -0.151054  -0.015272   7.775761   0.219658  -0.227097
     5  H   -0.041750   0.047635   0.010720   0.219658   1.117204   0.034401
     6  S    0.140678   0.044957   0.035502  -0.227097   0.034401  16.332713
     7  C   -0.361661   0.145212   0.054353  -0.257496   0.000697   0.219282
     8  H   -0.000289   0.016701   0.004317  -0.126237  -0.091922   0.058656
     9  H    0.035090  -0.001346  -0.008147  -0.339743   0.003482   0.053619
    10  C    0.345960  -0.115254   0.009879   0.396452   0.074669  -0.417672
    11  H   -0.073436   0.044023  -0.001025  -0.225886   0.012200  -0.037761
    12  C   -0.068161  -0.027979   0.013691  -0.071619  -0.172391  -0.034337
    13  H   -0.010954  -0.001219   0.002004   0.018095  -0.001953   0.024604
    14  H    0.001880   0.001923  -0.000014  -0.020011  -0.011488  -0.028746
    15  I   -0.016023   0.000366   0.000044   0.018510  -0.002854   0.013178
    16  O   -0.016200  -0.000479  -0.038263  -0.059566   0.019964   0.007259
    17  H   -0.011051   0.002252   0.081829   0.003403   0.008228  -0.000645
    18  H    0.001452  -0.000695  -0.007474   0.019608  -0.001647  -0.002001
    19  O    0.016040   0.012079  -0.002484  -0.130458  -0.051174  -0.001325
    20  H    0.008544  -0.002728  -0.000855   0.016676   0.011808  -0.000743
    21  H   -0.019932  -0.003373   0.004132   0.014338  -0.023430   0.001015
    22  H   -0.024663   0.010165  -0.015523   0.335787  -0.276543   0.001594
    23  O   -0.023345  -0.030494   0.003031   0.008043  -0.017546  -0.000538
    24  H   -0.002868   0.087122   0.002577  -0.005870   0.003202  -0.003207
    25  H    0.001228  -0.014845  -0.001286   0.000234   0.000336   0.000140
              7          8          9         10         11         12
     1  P   -0.361661  -0.000289   0.035090   0.345960  -0.073436  -0.068161
     2  O    0.145212   0.016701  -0.001346  -0.115254   0.044023  -0.027979
     3  O    0.054353   0.004317  -0.008147   0.009879  -0.001025   0.013691
     4  N   -0.257496  -0.126237  -0.339743   0.396452  -0.225886  -0.071619
     5  H    0.000697  -0.091922   0.003482   0.074669   0.012200  -0.172391
     6  S    0.219282   0.058656   0.053619  -0.417672  -0.037761  -0.034337
     7  C    6.279808  -0.478431   0.363810  -1.302563   0.463727  -0.300701
     8  H   -0.478431   2.855247  -0.712094   0.006852  -0.305515   0.191122
     9  H    0.363810  -0.712094   2.711937  -0.686772   0.216034  -0.087644
    10  C   -1.302563   0.006852  -0.686772  10.301626  -0.952770  -2.244992
    11  H    0.463727  -0.305515   0.216034  -0.952770   2.922026  -0.371614
    12  C   -0.300701   0.191122  -0.087644  -2.244992  -0.371614   8.538808
    13  H   -0.062857  -0.014235  -0.018344  -0.204971   0.099708   0.280609
    14  H    0.110822   0.040295  -0.008782   0.096861  -0.184312   0.145892
    15  I    0.274333   0.059295   0.011027  -0.016091   0.042800  -0.360545
    16  O    0.012991  -0.008291   0.018720  -0.003131   0.001410  -0.007466
    17  H   -0.002616  -0.000747   0.000788   0.003725  -0.000360  -0.004782
    18  H   -0.007010  -0.000281  -0.002878   0.004150  -0.000031  -0.000502
    19  O   -0.052667   0.048347  -0.013459   0.027877  -0.011244  -0.003227
    20  H    0.003516  -0.010940   0.000861  -0.000384   0.002739  -0.000655
    21  H   -0.002531   0.012364  -0.003111  -0.009242  -0.005413   0.008592
    22  H   -0.132741   0.016952  -0.043679  -0.063227   0.007459   0.088789
    23  O    0.003718   0.001740  -0.000876  -0.000570   0.000539   0.003097
    24  H    0.005267   0.004394   0.000154  -0.010431  -0.009798   0.004412
    25  H   -0.000953  -0.001290   0.000102   0.001266   0.001431  -0.000195
             13         14         15         16         17         18
     1  P   -0.010954   0.001880  -0.016023  -0.016200  -0.011051   0.001452
     2  O   -0.001219   0.001923   0.000366  -0.000479   0.002252  -0.000695
     3  O    0.002004  -0.000014   0.000044  -0.038263   0.081829  -0.007474
     4  N    0.018095  -0.020011   0.018510  -0.059566   0.003403   0.019608
     5  H   -0.001953  -0.011488  -0.002854   0.019964   0.008228  -0.001647
     6  S    0.024604  -0.028746   0.013178   0.007259  -0.000645  -0.002001
     7  C   -0.062857   0.110822   0.274333   0.012991  -0.002616  -0.007010
     8  H   -0.014235   0.040295   0.059295  -0.008291  -0.000747  -0.000281
     9  H   -0.018344  -0.008782   0.011027   0.018720   0.000788  -0.002878
    10  C   -0.204971   0.096861  -0.016091  -0.003131   0.003725   0.004150
    11  H    0.099708  -0.184312   0.042800   0.001410  -0.000360  -0.000031
    12  C    0.280609   0.145892  -0.360545  -0.007466  -0.004782  -0.000502
    13  H    1.573912  -0.451532  -0.065754  -0.000234  -0.000308   0.000269
    14  H   -0.451532   1.553895  -0.070175  -0.000279  -0.000161  -0.000078
    15  I   -0.065754  -0.070175  17.063046   0.000020  -0.000043  -0.000032
    16  O   -0.000234  -0.000279   0.000020   7.783383   0.295601   0.326864
    17  H   -0.000308  -0.000161  -0.000043   0.295601   0.593066  -0.118789
    18  H    0.000269  -0.000078  -0.000032   0.326864  -0.118789   0.668993
    19  O   -0.000342   0.000469  -0.000398   0.001389  -0.000019  -0.000069
    20  H    0.000114  -0.000460  -0.001766   0.000125   0.000110   0.000015
    21  H   -0.000077   0.001000   0.000948  -0.000594  -0.000700  -0.000041
    22  H    0.000066   0.006903   0.002365  -0.021694  -0.008339   0.010082
    23  O    0.000137   0.000054   0.000021  -0.000071  -0.000193  -0.000067
    24  H   -0.000456   0.000934  -0.000793  -0.000633   0.000287  -0.000103
    25  H    0.000052  -0.000090   0.000028   0.000149   0.000000   0.000029
             19         20         21         22         23         24
     1  P    0.016040   0.008544  -0.019932  -0.024663  -0.023345  -0.002868
     2  O    0.012079  -0.002728  -0.003373   0.010165  -0.030494   0.087122
     3  O   -0.002484  -0.000855   0.004132  -0.015523   0.003031   0.002577
     4  N   -0.130458   0.016676   0.014338   0.335787   0.008043  -0.005870
     5  H   -0.051174   0.011808  -0.023430  -0.276543  -0.017546   0.003202
     6  S   -0.001325  -0.000743   0.001015   0.001594  -0.000538  -0.003207
     7  C   -0.052667   0.003516  -0.002531  -0.132741   0.003718   0.005267
     8  H    0.048347  -0.010940   0.012364   0.016952   0.001740   0.004394
     9  H   -0.013459   0.000861  -0.003111  -0.043679  -0.000876   0.000154
    10  C    0.027877  -0.000384  -0.009242  -0.063227  -0.000570  -0.010431
    11  H   -0.011244   0.002739  -0.005413   0.007459   0.000539  -0.009798
    12  C   -0.003227  -0.000655   0.008592   0.088789   0.003097   0.004412
    13  H   -0.000342   0.000114  -0.000077   0.000066   0.000137  -0.000456
    14  H    0.000469  -0.000460   0.001000   0.006903   0.000054   0.000934
    15  I   -0.000398  -0.001766   0.000948   0.002365   0.000021  -0.000793
    16  O    0.001389   0.000125  -0.000594  -0.021694  -0.000071  -0.000633
    17  H   -0.000019   0.000110  -0.000700  -0.008339  -0.000193   0.000287
    18  H   -0.000069   0.000015  -0.000041   0.010082  -0.000067  -0.000103
    19  O    7.864861   0.328555   0.309240   0.011918  -0.060507  -0.006181
    20  H    0.328555   0.701193  -0.133130  -0.002969   0.000125  -0.003226
    21  H    0.309240  -0.133130   0.606680   0.010338   0.036969   0.002516
    22  H    0.011918  -0.002969   0.010338   1.015174   0.006800   0.000257
    23  O   -0.060507   0.000125   0.036969   0.006800   7.846822   0.240322
    24  H   -0.006181  -0.003226   0.002516   0.000257   0.240322   0.613859
    25  H    0.001919   0.000615  -0.002808  -0.000691   0.348439  -0.117750
             25
     1  P    0.001228
     2  O   -0.014845
     3  O   -0.001286
     4  N    0.000234
     5  H    0.000336
     6  S    0.000140
     7  C   -0.000953
     8  H   -0.001290
     9  H    0.000102
    10  C    0.001266
    11  H    0.001431
    12  C   -0.000195
    13  H    0.000052
    14  H   -0.000090
    15  I    0.000028
    16  O    0.000149
    17  H    0.000000
    18  H    0.000029
    19  O    0.001919
    20  H    0.000615
    21  H   -0.002808
    22  H   -0.000691
    23  O    0.348439
    24  H   -0.117750
    25  H    0.649279
 Mulliken atomic charges:
              1
     1  P    1.878692
     2  O   -0.985679
     3  O   -0.937670
     4  N   -0.122362
     5  H    0.128496
     6  S   -0.213526
     7  C    1.024692
     8  H   -0.566010
     9  H   -0.488747
    10  C    0.758752
    11  H   -0.634931
    12  C    0.481799
    13  H   -0.166334
    14  H   -0.184802
    15  I    0.048492
    16  O   -0.310976
    17  H    0.159466
    18  H    0.110235
    19  O   -0.289141
    20  H    0.082859
    21  H    0.196250
    22  H    0.065421
    23  O   -0.365650
    24  H    0.196010
    25  H    0.134661
 Sum of Mulliken charges=   0.00000
 Atomic charges with hydrogens summed into heavy atoms:
              1
     1  P    1.878692
     2  O   -0.985679
     3  O   -0.937670
     4  N    0.071555
     5  H    0.000000
     6  S   -0.213526
     7  C   -0.030065
     8  H    0.000000
     9  H    0.000000
    10  C    0.123821
[...]
                 (A) (A) (A) (A) (A) (A) (A) (A) (A)
 The electronic state is 1-A.
 Alpha  occ. eigenvalues --  -88.90134 -77.17638 -19.15383 -19.15098 -19.15069
 Alpha  occ. eigenvalues --  -19.13688 -19.13446 -14.40914 -10.25355 -10.25032
 Alpha  occ. eigenvalues --  -10.24427  -7.96186  -6.65079  -5.92537  -5.92300
 Alpha  occ. eigenvalues --   -5.91621  -4.81477  -4.81215  -4.80967  -2.14417
 Alpha  occ. eigenvalues --   -2.14046  -2.14011  -2.12983  -2.12982  -1.02901
 Alpha  occ. eigenvalues --   -1.02095  -1.01274  -1.00625  -0.96539  -0.96078
 Alpha  occ. eigenvalues --   -0.84322  -0.74793  -0.72200  -0.66509  -0.60140
 Alpha  occ. eigenvalues --   -0.57442  -0.57062  -0.54370  -0.53500  -0.52871
 Alpha  occ. eigenvalues --   -0.51559  -0.49901  -0.44822  -0.44365  -0.43065
 Alpha  occ. eigenvalues --   -0.42307  -0.42286  -0.40315  -0.39749  -0.38814
 Alpha  occ. eigenvalues --   -0.38092  -0.37690  -0.34062  -0.33788  -0.32705
 Alpha  occ. eigenvalues --   -0.32413  -0.32216  -0.32036  -0.31447  -0.30698
 Alpha  occ. eigenvalues --   -0.26630  -0.26265  -0.25997
 Alpha virt. eigenvalues --   -0.06113  -0.02292  -0.01417   0.00494   0.00872
 Alpha virt. eigenvalues --    0.01530   0.02660   0.03339   0.03602   0.03933
 Alpha virt. eigenvalues --    0.04555   0.05162   0.05746   0.06564   0.06858
 Alpha virt. eigenvalues --    0.07880   0.08132   0.09127   0.09176   0.09517
 Alpha virt. eigenvalues --    0.10142   0.10452   0.11244   0.11789   0.12564
 Alpha virt. eigenvalues --    0.12955   0.14097   0.14179   0.14524   0.15421
 Alpha virt. eigenvalues --    0.16005   0.16192   0.16542   0.16708   0.17554
 Alpha virt. eigenvalues --    0.17809   0.18018   0.18600   0.18861   0.19297
 Alpha virt. eigenvalues --    0.19720   0.19907   0.20861   0.21169   0.22035
 Alpha virt. eigenvalues --    0.22506   0.23094   0.23463   0.24023   0.24752
 Alpha virt. eigenvalues --    0.25375   0.25617   0.26288   0.27381   0.27613
 Alpha virt. eigenvalues --    0.28048   0.28461   0.29334   0.30329   0.30797
 Alpha virt. eigenvalues --    0.31167   0.32285   0.32671   0.33304   0.33661
 Alpha virt. eigenvalues --    0.34375   0.35107   0.35936   0.36563   0.37183
 Alpha virt. eigenvalues --    0.37860   0.38933   0.39339   0.40261   0.41269
 Alpha virt. eigenvalues --    0.41625   0.43247   0.44067   0.44627   0.45050
 Alpha virt. eigenvalues --    0.45788   0.48092   0.48321   0.48945   0.50164
 Alpha virt. eigenvalues --    0.50266   0.51366   0.53359   0.55193   0.55683
 Alpha virt. eigenvalues --    0.55929   0.57310   0.57872   0.58915   0.59608
 Alpha virt. eigenvalues --    0.60987   0.61945   0.63421   0.63814   0.65893
 Alpha virt. eigenvalues --    0.66547   0.67160   0.68021   0.68972   0.69345
 Alpha virt. eigenvalues --    0.70614   0.70831   0.72005   0.72789   0.73440
 Alpha virt. eigenvalues --    0.74291   0.74729   0.76437   0.77504   0.78575
 Alpha virt. eigenvalues --    0.79240   0.79403   0.79666   0.80627   0.81534
 Alpha virt. eigenvalues --    0.82319   0.83484   0.84300   0.84981   0.85598
 Alpha virt. eigenvalues --    0.86036   0.86888   0.87171   0.88295   0.88842
 Alpha virt. eigenvalues --    0.89450   0.90294   0.91228   0.91517   0.91725
 Alpha virt. eigenvalues --    0.92502   0.93141   0.93856   0.94169   0.95926
 Alpha virt. eigenvalues --    0.96445   0.96956   0.99407   0.99516   1.00665
 Alpha virt. eigenvalues --    1.02457   1.02727   1.03675   1.04254   1.05512
 Alpha virt. eigenvalues --    1.06181   1.07473   1.08122   1.08750   1.10536
 Alpha virt. eigenvalues --    1.11164   1.11582   1.12577   1.12983   1.14210
 Alpha virt. eigenvalues --    1.14927   1.16645   1.17472   1.18423   1.20017
 Alpha virt. eigenvalues --    1.20900   1.21613   1.22133   1.24013   1.24970
 Alpha virt. eigenvalues --    1.25136   1.26919   1.27517   1.28139   1.30162
 Alpha virt. eigenvalues --    1.30525   1.31772   1.33370   1.35087   1.36063
 Alpha virt. eigenvalues --    1.37498   1.39199   1.40461   1.40789   1.42320
 Alpha virt. eigenvalues --    1.45137   1.46873   1.47410   1.48776   1.49629
 Alpha virt. eigenvalues --    1.50445   1.53250   1.53949   1.55592   1.58059
 Alpha virt. eigenvalues --    1.59929   1.61359   1.63313   1.65062   1.66113
 Alpha virt. eigenvalues --    1.67429   1.68261   1.68726   1.70652   1.71371
 Alpha virt. eigenvalues --    1.72217   1.73092   1.74704   1.75893   1.76150
 Alpha virt. eigenvalues --    1.77151   1.77795   1.79890   1.80669   1.82390
 Alpha virt. eigenvalues --    1.83291   1.84268   1.85598   1.86536   1.87573
 Alpha virt. eigenvalues --    1.89830   1.90478   1.91985   1.94097   1.95837
 Alpha virt. eigenvalues --    1.97085   1.98352   1.99352   1.99943   2.01896
 Alpha virt. eigenvalues --    2.05245   2.07187   2.08591   2.10838   2.12185
 Alpha virt. eigenvalues --    2.12829   2.15188   2.16179   2.18617   2.20337
 Alpha virt. eigenvalues --    2.21253   2.22580   2.24218   2.26571   2.28048
 Alpha virt. eigenvalues --    2.29344   2.30333   2.32531   2.33849   2.36020
 Alpha virt. eigenvalues --    2.37999   2.41773   2.42452   2.44070   2.45423
 Alpha virt. eigenvalues --    2.46972   2.47932   2.49067   2.52102   2.54609
 Alpha virt. eigenvalues --    2.55466   2.57121   2.57979   2.60713   2.61416
 Alpha virt. eigenvalues --    2.65901   2.67404   2.68898   2.71065   2.72810
 Alpha virt. eigenvalues --    2.75617   2.77579   2.81942   2.98809   3.10190
 Alpha virt. eigenvalues --    3.13616   3.17105   3.18670   3.19755   3.22471
 Alpha virt. eigenvalues --    3.25252   3.30036   3.32270   3.33245   3.33908
 Alpha virt. eigenvalues --    3.34115   3.36411   3.41030   3.41782   3.45834
 Alpha virt. eigenvalues --    3.46538   3.48041   3.50860   3.54319   3.56335
 Alpha virt. eigenvalues --    3.58779   3.61150   3.65239   3.67849   3.76855
 Alpha virt. eigenvalues --    3.79920   3.80876   3.84670   3.90478   4.62682
 Alpha virt. eigenvalues --    4.63418   4.74736   4.80669   4.90964   4.92787
 Alpha virt. eigenvalues --    4.95600   5.06495   5.21250   5.28530   5.36638
 Alpha virt. eigenvalues --    5.40352   5.41707   5.45461   5.50402   5.51862
 Alpha virt. eigenvalues --    5.52366   5.52954   5.56695   5.61069   5.66033
 Alpha virt. eigenvalues --    5.73648   5.77438   5.81684   5.83523   6.03565
 Alpha virt. eigenvalues --    6.77845   6.80342   6.82905   6.87705   6.91733
 Alpha virt. eigenvalues --    6.93385   6.97950   8.76997   8.98314   9.00037
 Alpha virt. eigenvalues --   10.08629  13.78164  13.78828  13.87784  13.92223
 Alpha virt. eigenvalues --   14.05345  20.72615  20.75112  20.82521  20.96241
 Alpha virt. eigenvalues --   20.98280  22.07020  35.06954  35.25584  35.27557
 Alpha virt. eigenvalues --   36.78677  36.85320  36.94168  36.98653  37.00824
 Alpha virt. eigenvalues --   37.01574  37.02070  37.03515  37.04791  37.06624
 Alpha virt. eigenvalues --   37.09749  37.18135  37.31269  59.04998
          Condensed to atoms (all electrons):
              1          2          3          4          5          6
     1  P   13.369621   0.114595  -0.025381   0.186175  -0.013779   0.213600
     2  O    0.114595   8.857923  -0.057329  -0.015056  -0.000111   0.029887
     3  O   -0.025381  -0.057329   9.007884  -0.035484  -0.000543  -0.014374
     4  N    0.186175  -0.015056  -0.035484   6.940430   0.360152  -0.039691
     5  H   -0.013779  -0.000111  -0.000543   0.360152   0.295289   0.002161
     6  S    0.213600   0.029887  -0.014374  -0.039691   0.002161  15.910861
     7  C   -0.210500   0.088984   0.016554  -0.076728  -0.025565   0.065636
     8  H    0.002988  -0.000510  -0.000076  -0.040936  -0.006464   0.002207
     9  H    0.004405  -0.000986  -0.000295  -0.007412   0.001598   0.013244
    10  C   -0.087481  -0.065383   0.058294  -0.009112   0.002937  -0.074256
    11  H   -0.012290  -0.000151   0.000370  -0.000330   0.000408  -0.009088
    12  C    0.093660  -0.020908  -0.011466   0.048735   0.002129  -0.070582
    13  H    0.001246   0.000199  -0.000053  -0.004163   0.000001   0.017172
    14  H    0.000387  -0.000189   0.000007   0.000795   0.000000  -0.000273
    15  I   -0.005952   0.000215  -0.000034   0.000863   0.000018  -0.007916
    16  O   -0.002372  -0.001035  -0.043798  -0.063319   0.001088  -0.001459
    17  H    0.008448   0.000191   0.013387   0.001916   0.000064  -0.001810
    18  H    0.001631  -0.000006   0.004189   0.006114  -0.000003  -0.000462
    19  O    0.015040  -0.002808  -0.000240  -0.079522   0.014079  -0.003454
    20  H    0.000345  -0.000348  -0.000045   0.005710  -0.001251   0.000005
    21  H    0.002086  -0.001138  -0.000052   0.004393  -0.001724   0.000094
    22  H   -0.022290   0.001002  -0.004604   0.362089  -0.005369   0.002303
    23  O   -0.011449  -0.042905  -0.000760   0.002141   0.000605  -0.000015
    24  H    0.009067   0.018998  -0.001078  -0.002722   0.000143  -0.000800
    25  H    0.003456   0.006466  -0.000197  -0.001209   0.000000  -0.000063
              7          8          9         10         11         12
     1  P   -0.210500   0.002988   0.004405  -0.087481  -0.012290   0.093660
     2  O    0.088984  -0.000510  -0.000986  -0.065383  -0.000151  -0.020908
     3  O    0.016554  -0.000076  -0.000295   0.058294   0.000370  -0.011466
     4  N   -0.076728  -0.040936  -0.007412  -0.009112  -0.000330   0.048735
     5  H   -0.025565  -0.006464   0.001598   0.002937   0.000408   0.002129
     6  S    0.065636   0.002207   0.013244  -0.074256  -0.009088  -0.070582
     7  C    5.625495   0.407001   0.365273   0.137869  -0.006279  -0.267500
     8  H    0.407001   0.439020  -0.006069  -0.025186  -0.001833  -0.005901
     9  H    0.365273  -0.006069   0.422900  -0.031997   0.001491   0.006422
    10  C    0.137869  -0.025186  -0.031997   6.445462   0.432542  -0.568173
    11  H   -0.006279  -0.001833   0.001491   0.432542   0.418073  -0.040419
    12  C   -0.267500  -0.005901   0.006422  -0.568173  -0.040419   6.673320
    13  H   -0.001843   0.000027   0.001455   0.009067   0.000927   0.354397
    14  H    0.006198  -0.000059  -0.000116  -0.041364  -0.000135   0.425128
    15  I    0.096023   0.000002   0.001397  -0.099344   0.000080   0.056652
    16  O   -0.003098  -0.000400   0.002866  -0.003766  -0.000006  -0.001415
    17  H    0.000528   0.000001  -0.000006   0.000713   0.000000   0.000058
    18  H    0.000801   0.000001  -0.000066   0.000047   0.000000   0.000026
    19  O   -0.012605   0.003716  -0.000913  -0.005924   0.000490  -0.000015
    20  H    0.003596  -0.000124   0.000002  -0.001070   0.000001   0.000019
    21  H    0.001521  -0.000020   0.000000  -0.000878  -0.000005  -0.000082
    22  H   -0.017808   0.001969  -0.007913   0.004801  -0.000042  -0.002670
    23  O   -0.001357   0.000013   0.000006   0.001026   0.000023   0.000053
    24  H   -0.001047   0.000000   0.000000   0.000877  -0.000012   0.000112
    25  H   -0.000109   0.000000   0.000000  -0.000019   0.000000  -0.000006
             13         14         15         16         17         18
     1  P    0.001246   0.000387  -0.005952  -0.002372   0.008448   0.001631
     2  O    0.000199  -0.000189   0.000215  -0.001035   0.000191  -0.000006
     3  O   -0.000053   0.000007  -0.000034  -0.043798   0.013387   0.004189
     4  N   -0.004163   0.000795   0.000863  -0.063319   0.001916   0.006114
     5  H    0.000001   0.000000   0.000018   0.001088   0.000064  -0.000003
     6  S    0.017172  -0.000273  -0.007916  -0.001459  -0.001810  -0.000462
     7  C   -0.001843   0.006198   0.096023  -0.003098   0.000528   0.000801
     8  H    0.000027  -0.000059   0.000002  -0.000400   0.000001   0.000001
     9  H    0.001455  -0.000116   0.001397   0.002866  -0.000006  -0.000066
    10  C    0.009067  -0.041364  -0.099344  -0.003766   0.000713   0.000047
    11  H    0.000927  -0.000135   0.000080  -0.000006   0.000000   0.000000
    12  C    0.354397   0.425128   0.056652  -0.001415   0.000058   0.000026
    13  H    0.395939  -0.004386  -0.012994  -0.000007   0.000000   0.000000
    14  H   -0.004386   0.393191  -0.011240  -0.000001   0.000000   0.000000
    15  I   -0.012994  -0.011240  16.895887   0.000017   0.000000   0.000000
    16  O   -0.000007  -0.000001   0.000017   8.114117   0.300880   0.313877
    17  H    0.000000   0.000000   0.000000   0.300880   0.356964  -0.014064
    18  H    0.000000   0.000000   0.000000   0.313877  -0.014064   0.385277
    19  O   -0.000002   0.000004   0.000266   0.001581  -0.000138  -0.000009
    20  H    0.000000   0.000000  -0.000002  -0.000012   0.000000   0.000000
    21  H    0.000000   0.000000   0.000000  -0.000030   0.000000   0.000000
    22  H    0.000010   0.000000  -0.000016   0.023582  -0.004936  -0.000799
    23  O    0.000000   0.000000   0.000003   0.000269  -0.000016  -0.000001
    24  H    0.000000   0.000000   0.000000  -0.000014   0.000001   0.000000
    25  H    0.000000   0.000000   0.000000   0.000000   0.000000   0.000000
             19         20         21         22         23         24
     1  P    0.015040   0.000345   0.002086  -0.022290  -0.011449   0.009067
     2  O   -0.002808  -0.000348  -0.001138   0.001002  -0.042905   0.018998
     3  O   -0.000240  -0.000045  -0.000052  -0.004604  -0.000760  -0.001078
     4  N   -0.079522   0.005710   0.004393   0.362089   0.002141  -0.002722
     5  H    0.014079  -0.001251  -0.001724  -0.005369   0.000605   0.000143
     6  S   -0.003454   0.000005   0.000094   0.002303  -0.000015  -0.000800
     7  C   -0.012605   0.003596   0.001521  -0.017808  -0.001357  -0.001047
     8  H    0.003716  -0.000124  -0.000020   0.001969   0.000013   0.000000
     9  H   -0.000913   0.000002   0.000000  -0.007913   0.000006   0.000000
    10  C   -0.005924  -0.001070  -0.000878   0.004801   0.001026   0.000877
    11  H    0.000490   0.000001  -0.000005  -0.000042   0.000023  -0.000012
    12  C   -0.000015   0.000019  -0.000082  -0.002670   0.000053   0.000112
    13  H   -0.000002   0.000000   0.000000   0.000010   0.000000   0.000000
    14  H    0.000004   0.000000   0.000000   0.000000   0.000000   0.000000
    15  I    0.000266  -0.000002   0.000000  -0.000016   0.000003   0.000000
    16  O    0.001581  -0.000012  -0.000030   0.023582   0.000269  -0.000014
    17  H   -0.000138   0.000000   0.000000  -0.004936  -0.000016   0.000001
    18  H   -0.000009   0.000000   0.000000  -0.000799  -0.000001   0.000000
    19  O    8.180072   0.317755   0.302692   0.001938  -0.070469   0.003363
    20  H    0.317755   0.387984  -0.015477  -0.000007   0.004568  -0.000011
    21  H    0.302692  -0.015477   0.324815  -0.000017   0.023700  -0.002076
    22  H    0.001938  -0.000007  -0.000017   0.329614   0.000030   0.000001
    23  O   -0.070469   0.004568   0.023700   0.000030   8.139670   0.297497
    24  H    0.003363  -0.000011  -0.002076   0.000001   0.297497   0.319296
    25  H    0.003984  -0.000013  -0.000717   0.000000   0.314918  -0.015797
             25
     1  P    0.003456
     2  O    0.006466
     3  O   -0.000197
     4  N   -0.001209
     5  H    0.000000
     6  S   -0.000063
     7  C   -0.000109
     8  H    0.000000
     9  H    0.000000
    10  C   -0.000019
    11  H    0.000000
    12  C   -0.000006
    13  H    0.000000
    14  H    0.000000
    15  I    0.000000
    16  O    0.000000
    17  H    0.000000
    18  H    0.000000
    19  O    0.003984
    20  H   -0.000013
    21  H   -0.000717
    22  H    0.000000
    23  O    0.314918
    24  H   -0.015797
    25  H    0.389244
 Mulliken atomic charges:
              1
     1  P    1.364742
     2  O   -0.909596
     3  O   -0.904877
     4  N   -0.543829
     5  H    0.374137
     6  S   -0.032925
     7  C   -0.191040
     8  H    0.230632
     9  H    0.234713
    10  C   -0.079680
    11  H    0.216184
    12  C   -0.671572
    13  H    0.243008
    14  H    0.232054
    15  I    0.086075
    16  O   -0.637545
    17  H    0.337819
    18  H    0.303446
    19  O   -0.668883
    20  H    0.298374
    21  H    0.362914
    22  H    0.339134
    23  O   -0.657551
    24  H    0.374202
    25  H    0.300064
 Sum of Mulliken charges=   0.00000
 Atomic charges with hydrogens summed into heavy atoms:
              1
     1  P    1.364742
     2  O   -0.909596
     3  O   -0.904877
     4  N    0.169442
     5  H    0.000000
     6  S   -0.032925
     7  C    0.274305
     8  H    0.000000
     9  H    0.000000
    10  C    0.136504
    11  H    0.000000
    12  C   -0.196511
    13  H    0.000000
    14  H    0.000000
    15  I    0.086075
    16  O    0.003720
    17  H    0.000000
    18  H    0.000000
    19  O   -0.007595
    20  H    0.000000
    21  H    0.000000
    22  H    0.000000
    23  O    0.016715
    24  H    0.000000
    25  H    0.000000
 Sum of Mulliken charges=   0.00000
 Electronic spatial extent (au):  <R**2>=  4630.3975
 Charge=     0.0000 electrons
 Dipole moment (field-independent basis, Debye):
    X=     4.7414    Y=    -0.2030    Z=     3.9897  Tot=     6.2000
 Quadrupole moment (field-independent basis, Debye-Ang):
   XX=  -122.7178   YY=  -100.8052   ZZ=  -111.4233
   XY=    -4.4900   XZ=    -4.5570   YZ=    -2.3022
 Traceless Quadrupole moment (field-independent basis, Debye-Ang):
   XX=   -11.0690   YY=    10.8435   ZZ=     0.2255
   XY=    -4.4900   XZ=    -4.5570   YZ=    -2.3022
 Octapole moment (field-independent basis, Debye-Ang**2):
  XXX=   146.7538  YYY=    39.2967  ZZZ=    30.7485  XYY=    39.9440
  XXY=    49.8928  XXZ=     0.0487  XZZ=    59.9061  YZZ=   -15.7736
  YYZ=    43.7943  XYZ=    24.7178
 Hexadecapole moment (field-independent basis, Debye-Ang**3):
 XXXX= -4321.6088 YYYY= -1319.1583 ZZZZ=  -851.8830 XXXY=  -174.9272
 XXXZ=    99.3599 YYYX=    50.6523 YYYZ=    -3.6922 ZZZX=   -19.5758
 ZZZY=   -69.9386 XXYY=  -850.9625 XXZZ=  -911.0221 YYZZ=  -329.3660
 XXYZ=   -86.1890 YYXZ=   -66.7296 ZZXY=    85.6236
 N-N= 1.155543185073D+03 E-N=-5.633148094919D+03  KE= 1.360171661593D+03
 Calculating spin-rotation constants.
 Leave Link  601 at Sat Aug  2 05:28:39 2008, MaxMem=  183500800 cpu:     129.6
 (Enter /data/hamilton/dch0ik/g03/l9999.exe)
 1\1\GINC-NODE192\SP\RB3LYP\Gen\C3H13I1N1O5P1S1\DCH0IK\02-Aug-2008\0\\#
 p nmr=(giao,spinspin) b3lyp/Gen scf=tight integral=(grid=ultrafine) ps
 eudo=read scrf=(pcm,solvent=water,read) guess=read geom=checkpoint\\Mo
 lecule 6, NMR and scalar couplings.\\0,1\P,0,-2.3979798085,-0.63935156
 33,-0.6084579603\O,0,-2.4789130621,0.5523013438,-1.5474552768\O,0,-3.5
 803197746,-1.4417634609,-0.0973410481\N,0,-1.5145858478,0.0546484663,0
 .9405734281\H,0,-1.7069253167,1.0815683314,1.000404036\S,0,-0.71939874
 11,-1.8849599296,-1.1133257746\C,0,-0.0436787976,-0.2004830183,0.93354
 11288\H,0,0.4713278078,0.6950120203,1.3003512657\H,0,0.1626321026,-1.0
 337434774,1.6146134611\C,0,0.4407482591,-0.5642575694,-0.4774284694\H,
 0,0.3564323124,0.2985489478,-1.1487714858\C,0,1.8508547785,-1.12366391
 15,-0.5124572504\H,0,1.9796508167,-1.9705810527,0.1689641778\H,0,2.138
 9926285,-1.4121087223,-1.526157101\I,0,3.3743442027,0.3644059207,0.089
 6594116\O,0,-3.1696422839,-1.5173529994,2.5941540163\H,0,-3.5352101366
 ,-1.7122339406,1.7014475877\H,0,-3.1214685531,-2.3589565969,3.06010463
 33\O,0,-2.0658145155,2.7788200927,1.1703478751\H,0,-1.4649564157,3.520
 6426581,1.297784589\H,0,-2.6299315537,3.0091560423,0.387427418\H,0,-1.
 9646073416,-0.4125299508,1.7494765512\O,0,-3.4758967507,3.017935768,-1
 .0951773023\H,0,-3.2157802416,2.111035231,-1.3864895596\H,0,-4.4390558
 786,3.0372631247,-1.1229216953\\Version=IA32L-G03RevD.01\State=1-A\HF=
 -1404.3750751\RMSD=2.612e-09\Thermal=0.\Dipole=1.872483,-0.0453681,1.5
 626198\PG=C01 [X(C3H13I1N1O5P1S1)]\\@


 WISDOM IS KNOWING WHAT TO DO,
 SKILL IS KNOWING HOW TO DO IT,
 AND VIRTUE IS NOT DOING IT.
 Job cpu time:  0 days  0 hours  2 minutes 35.8 seconds.
 File lengths (MBytes):  RWF=   1373 Int=      0 D2E=      0 Chk=     21 Scr=      1
 Normal termination of Gaussian 03 at Sat Aug  2 05:28:41 2008.
