 Entering Gaussian System, Link 0=/usr/local/Chem-Apps/g03_d01/g03/g03
 Initial command:
 /usr/local/Chem-Apps/g03_d01/g03/l1.exe /scratch/LSF_69154/Gau-16665.inp -scrdir=/scratch/LSF_69154/
 Entering Link 1 = /usr/local/Chem-Apps/g03_d01/g03/l1.exe PID=     16666.
  
 Copyright (c) 1988,1990,1992,1993,1995,1998,2003,2004, Gaussian, Inc.
                  All Rights Reserved.
  
 This is the Gaussian(R) 03 program.  It is based on the
 the Gaussian(R) 98 system (copyright 1998, Gaussian, Inc.),
 the Gaussian(R) 94 system (copyright 1995, Gaussian, Inc.),
 the Gaussian 92(TM) system (copyright 1992, Gaussian, Inc.),
 the Gaussian 90(TM) system (copyright 1990, Gaussian, Inc.),
 the Gaussian 88(TM) system (copyright 1988, Gaussian, Inc.),
 the Gaussian 86(TM) system (copyright 1986, Carnegie Mellon
 University), and the Gaussian 82(TM) system (copyright 1983,
 Carnegie Mellon University). Gaussian is a federally registered
 trademark of Gaussian, Inc.
  
 This software contains proprietary and confidential information,
 including trade secrets, belonging to Gaussian, Inc.
  
 This software is provided under written license and may be
 used, copied, transmitted, or stored only in accord with that
 written license.
  
 The following legend is applicable only to US Government
 contracts under FAR:
  
                    RESTRICTED RIGHTS LEGEND
  
 Use, reproduction and disclosure by the US Government is
 subject to restrictions as set forth in subparagraphs (a)
 and (c) of the Commercial Computer Software - Restricted
 Rights clause in FAR 52.227-19.
  
 Gaussian, Inc.
 340 Quinnipiac St., Bldg. 40, Wallingford CT 06492
  
  
 ---------------------------------------------------------------
 Warning -- This program may not be used in any manner that
 competes with the business of Gaussian, Inc. or will provide
 assistance to any competitor of Gaussian, Inc.  The licensee
 of this program is prohibited from giving any competitor of
 Gaussian, Inc. access to this program.  By using this program,
 the user acknowledges that Gaussian, Inc. is engaged in the
 business of creating and licensing software in the field of
 computational chemistry and represents and warrants to the
 licensee that it is not a competitor of Gaussian, Inc. and that
 it will not use this program in any manner prohibited above.
 ---------------------------------------------------------------
  

 Cite this work as:
 Gaussian 03, Revision D.01,
 M. J. Frisch, G. W. Trucks, H. B. Schlegel, G. E. Scuseria, 
 M. A. Robb, J. R. Cheeseman, J. A. Montgomery, Jr., T. Vreven, 
 K. N. Kudin, J. C. Burant, J. M. Millam, S. S. Iyengar, J. Tomasi, 
 V. Barone, B. Mennucci, M. Cossi, G. Scalmani, N. Rega, 
 G. A. Petersson, H. Nakatsuji, M. Hada, M. Ehara, K. Toyota, 
 R. Fukuda, J. Hasegawa, M. Ishida, T. Nakajima, Y. Honda, O. Kitao, 
 H. Nakai, M. Klene, X. Li, J. E. Knox, H. P. Hratchian, J. B. Cross, 
 V. Bakken, C. Adamo, J. Jaramillo, R. Gomperts, R. E. Stratmann, 
 O. Yazyev, A. J. Austin, R. Cammi, C. Pomelli, J. W. Ochterski, 
 P. Y. Ayala, K. Morokuma, G. A. Voth, P. Salvador, J. J. Dannenberg, 
 V. G. Zakrzewski, S. Dapprich, A. D. Daniels, M. C. Strain, 
 O. Farkas, D. K. Malick, A. D. Rabuck, K. Raghavachari, 
 J. B. Foresman, J. V. Ortiz, Q. Cui, A. G. Baboul, S. Clifford, 
 J. Cioslowski, B. B. Stefanov, G. Liu, A. Liashenko, P. Piskorz, 
 I. Komaromi, R. L. Martin, D. J. Fox, T. Keith, M. A. Al-Laham, 
 C. Y. Peng, A. Nanayakkara, M. Challacombe, P. M. W. Gill, 
 B. Johnson, W. Chen, M. W. Wong, C. Gonzalez, and J. A. Pople, 
 Gaussian, Inc., Wallingford CT, 2004.
 
 ******************************************
 Gaussian 03:  IA64L-G03RevD.01 13-Oct-2005
                 3-Aug-2008 
 ******************************************
 %Mem=4GB
 %NProcShared=16
 Will use up to   16 processors via shared memory.
 %Chk=molecule_13.chk
 Default route:  MaxDisk=64GB Cachesize=589840
 ------------------------------------------------------------------
 #p opt=gdiis b3lyp/aug-cc-pVDZ scf=tight integral=(grid=ultrafine)
 ------------------------------------------------------------------
 1/4=589840,14=-1,18=20,19=11,26=3,38=1/1,3;
 2/4=589840,9=110,17=6,18=5,40=1/2;
 3/4=589840,5=16,7=10,11=2,16=1,25=1,30=1,74=-5,75=5/1,2,3;
 4/4=589840/1;
 5/4=589840,5=2,32=2,38=5/2;
 6/4=589840,7=2,8=2,9=2,10=2,28=1/1;
 7/4=589840/1,2,3,16;
 1/4=589840,14=-1,18=20,19=11/3(3);
 2/4=589840,9=110/2;
 6/4=589840,7=2,8=2,9=2,10=2,19=2,28=1/1;
 99/4=589840/99;
 2/4=589840,9=110/2;
 3/4=589840,5=16,7=10,11=2,16=1,25=1,30=1,74=-5,75=5/1,2,3;
 4/4=589840,5=5,16=3/1;
 5/4=589840,5=2,32=2,38=5/2;
 7/4=589840/1,2,3,16;
 1/4=589840,14=-1,18=20,19=11/3(-5);
 2/4=589840,9=110/2;
 6/4=589840,7=2,8=2,9=2,10=2,19=2,28=1/1;
 99/4=589840,9=1/99;
 Leave Link    1 at Sun Aug  3 13:15:06 2008, MaxMem=  536870912 cpu:       1.8
 (Enter /usr/local/Chem-Apps/g03_d01/g03/l101.exe)
 ----------------------
 Molecule 13, geometry.
 ----------------------
 Symbolic Z-matrix:
 Charge =  0 Multiplicity = 1
 P                    -2.39481  -0.61659  -0.62253 
 O                    -2.46255   0.58753  -1.54654 
 O                    -3.58547  -1.41623  -0.12661 
 N                    -1.51266   0.05071   0.9389 
 H                    -1.69731   1.07825   1.01105 
 S                    -0.72378  -1.86868  -1.13631 
 C                    -0.04375  -0.21575   0.9347 
 H                     0.4766    0.67096   1.31506 
 H                     0.15322  -1.05921   1.60592 
 C                     0.44383  -0.56526  -0.47879 
 H                     0.36904   0.30666  -1.13939 
 C                     1.84971  -1.13514  -0.51512 
 H                     1.96906  -1.99165   0.15595 
 H                     2.13991  -1.41287  -1.53122 
 O                    -3.18682  -1.52932   2.56538 
 H                    -3.55009  -1.70995   1.66874 
 H                    -3.14713  -2.37714   3.02073 
 O                    -2.04379   2.77594   1.20119 
 H                    -1.43776   3.51138   1.34058 
 H                    -2.60278   3.02062   0.41894 
 H                    -1.96971  -0.42323   1.73989 
 O                    -3.44235   3.05489  -1.06692 
 H                    -3.18802   2.14978  -1.36872 
 H                    -4.40521   3.08206  -1.09841 
 O                     2.83985  -0.18635  -0.10973 
 H                     3.7145   -0.54227  -0.28264 
 
                    Isotopes and Nuclear Properties:
 (Nuclear quadrupole moments (NQMom) in fm**2, nuclear magnetic moments (NMagM)
  in nuclear magnetons)

  Atom         1           2           3           4           5           6           7           8           9          10
 IAtWgt=          31          16          16          14           1          32          12           1           1          12
 AtmWgt=  30.9737634  15.9949146  15.9949146  14.0030740   1.0078250  31.9720718  12.0000000   1.0078250   1.0078250  12.0000000
 NucSpn=           1           0           0           2           1           0           0           1           1           0
 AtZEff=   0.0000000   0.0000000   0.0000000   0.0000000   0.0000000   0.0000000   0.0000000   0.0000000   0.0000000   0.0000000
 NQMom=    0.0000000   0.0000000   0.0000000   2.0440000   0.0000000   0.0000000   0.0000000   0.0000000   0.0000000   0.0000000
 NMagM=    1.1316000   0.0000000   0.0000000   0.4037610   2.7928460   0.0000000   0.0000000   2.7928460   2.7928460   0.0000000

  Atom        11          12          13          14          15          16          17          18          19          20
 IAtWgt=           1          12           1           1          16           1           1          16           1           1
 AtmWgt=   1.0078250  12.0000000   1.0078250   1.0078250  15.9949146   1.0078250   1.0078250  15.9949146   1.0078250   1.0078250
 NucSpn=           1           0           1           1           0           1           1           0           1           1
 AtZEff=   0.0000000   0.0000000   0.0000000   0.0000000   0.0000000   0.0000000   0.0000000   0.0000000   0.0000000   0.0000000
 NQMom=    0.0000000   0.0000000   0.0000000   0.0000000   0.0000000   0.0000000   0.0000000   0.0000000   0.0000000   0.0000000
 NMagM=    2.7928460   0.0000000   2.7928460   2.7928460   0.0000000   2.7928460   2.7928460   0.0000000   2.7928460   2.7928460

  Atom        21          22          23          24          25          26
 IAtWgt=           1          16           1           1          16           1
 AtmWgt=   1.0078250  15.9949146   1.0078250   1.0078250  15.9949146   1.0078250
 NucSpn=           1           0           1           1           0           1
 AtZEff=   0.0000000   0.0000000   0.0000000   0.0000000   0.0000000   0.0000000
 NQMom=    0.0000000   0.0000000   0.0000000   0.0000000   0.0000000   0.0000000
 NMagM=    2.7928460   0.0000000   2.7928460   2.7928460   0.0000000   2.7928460
 Leave Link  101 at Sun Aug  3 13:15:06 2008, MaxMem=  536870912 cpu:       0.5
 (Enter /usr/local/Chem-Apps/g03_d01/g03/l103.exe)

 GradGradGradGradGradGradGradGradGradGradGradGradGradGradGradGradGradGrad
 Berny optimization.
 Initialization pass.
                           ----------------------------
                           !    Initial Parameters    !
                           ! (Angstroms and Degrees)  !
 --------------------------                            --------------------------
 ! Name  Definition              Value          Derivative Info.                !
 --------------------------------------------------------------------------------
 ! R1    R(1,2)                  1.5193         estimate D2E/DX2                !
 ! R2    R(1,3)                  1.5176         estimate D2E/DX2                !
 ! R3    R(1,4)                  1.9135         estimate D2E/DX2                !
 ! R4    R(1,6)                  2.1504         estimate D2E/DX2                !
 ! R5    R(2,23)                 1.7316         estimate D2E/DX2                !
 ! R6    R(3,16)                 1.8196         estimate D2E/DX2                !
 ! R7    R(4,5)                  1.0465         estimate D2E/DX2                !
 ! R8    R(4,7)                  1.4929         estimate D2E/DX2                !
 ! R9    R(4,21)                 1.0369         estimate D2E/DX2                !
 ! R10   R(5,18)                 1.7431         estimate D2E/DX2                !
 ! R11   R(6,10)                 1.8694         estimate D2E/DX2                !
 ! R12   R(7,8)                  1.0962         estimate D2E/DX2                !
 ! R13   R(7,9)                  1.0958         estimate D2E/DX2                !
 ! R14   R(7,10)                 1.5355         estimate D2E/DX2                !
 ! R15   R(10,11)                1.0965         estimate D2E/DX2                !
 ! R16   R(10,12)                1.5174         estimate D2E/DX2                !
 ! R17   R(12,13)                1.0946         estimate D2E/DX2                !
 ! R18   R(12,14)                1.0926         estimate D2E/DX2                !
 ! R19   R(12,25)                1.43           estimate D2E/DX2                !
 ! R20   R(15,16)                0.9841         estimate D2E/DX2                !
 ! R21   R(15,17)                0.9632         estimate D2E/DX2                !
 ! R22   R(15,21)                1.8402         estimate D2E/DX2                !
 ! R23   R(18,19)                0.9631         estimate D2E/DX2                !
 ! R24   R(18,20)                0.9921         estimate D2E/DX2                !
 ! R25   R(20,22)                1.707          estimate D2E/DX2                !
 ! R26   R(22,23)                0.9874         estimate D2E/DX2                !
 ! R27   R(22,24)                0.9638         estimate D2E/DX2                !
 ! R28   R(25,26)                0.96           estimate D2E/DX2                !
 ! A1    A(2,1,3)              125.5469         estimate D2E/DX2                !
 ! A2    A(2,1,4)              103.9128         estimate D2E/DX2                !
 ! A3    A(2,1,6)              110.5368         estimate D2E/DX2                !
 ! A4    A(3,1,4)              106.1887         estimate D2E/DX2                !
 ! A5    A(3,1,6)              112.3933         estimate D2E/DX2                !
 ! A6    A(4,1,6)               92.2795         estimate D2E/DX2                !
 ! A7    A(1,2,23)             132.1631         estimate D2E/DX2                !
 ! A8    A(1,3,16)             113.0935         estimate D2E/DX2                !
 ! A9    A(1,4,5)              108.5018         estimate D2E/DX2                !
 ! A10   A(1,4,7)              112.8966         estimate D2E/DX2                !
 ! A11   A(1,4,21)             105.531          estimate D2E/DX2                !
 ! A12   A(5,4,7)              110.4299         estimate D2E/DX2                !
 ! A13   A(5,4,21)             108.528          estimate D2E/DX2                !
 ! A14   A(7,4,21)             110.7507         estimate D2E/DX2                !
 ! A15   A(1,6,10)              89.7331         estimate D2E/DX2                !
 ! A16   A(4,7,8)              108.766          estimate D2E/DX2                !
 ! A17   A(4,7,9)              108.2119         estimate D2E/DX2                !
 ! A18   A(4,7,10)             110.8333         estimate D2E/DX2                !
 ! A19   A(8,7,9)              108.9509         estimate D2E/DX2                !
 ! A20   A(8,7,10)             110.6577         estimate D2E/DX2                !
 ! A21   A(9,7,10)             109.3644         estimate D2E/DX2                !
 ! A22   A(6,10,7)             106.5084         estimate D2E/DX2                !
 ! A23   A(6,10,11)            107.4539         estimate D2E/DX2                !
 ! A24   A(6,10,12)            107.9635         estimate D2E/DX2                !
 ! A25   A(7,10,11)            110.6056         estimate D2E/DX2                !
 ! A26   A(7,10,12)            113.6856         estimate D2E/DX2                !
 ! A27   A(11,10,12)           110.3296         estimate D2E/DX2                !
 ! A28   A(10,12,13)           112.3463         estimate D2E/DX2                !
 ! A29   A(10,12,14)           111.334          estimate D2E/DX2                !
 ! A30   A(10,12,25)           112.6777         estimate D2E/DX2                !
 ! A31   A(13,12,14)           110.0153         estimate D2E/DX2                !
 ! A32   A(13,12,25)           105.6563         estimate D2E/DX2                !
 ! A33   A(14,12,25)           104.3819         estimate D2E/DX2                !
 ! A34   A(16,15,17)           106.521          estimate D2E/DX2                !
 ! A35   A(16,15,21)            86.8911         estimate D2E/DX2                !
 ! A36   A(17,15,21)           135.5539         estimate D2E/DX2                !
 ! A37   A(3,16,15)            151.2233         estimate D2E/DX2                !
 ! A38   A(5,18,19)            129.3782         estimate D2E/DX2                !
 ! A39   A(5,18,20)            105.4383         estimate D2E/DX2                !
 ! A40   A(19,18,20)           106.2803         estimate D2E/DX2                !
 ! A41   A(18,20,22)           165.5606         estimate D2E/DX2                !
 ! A42   A(4,21,15)            155.9            estimate D2E/DX2                !
 ! A43   A(20,22,23)            96.9478         estimate D2E/DX2                !
 ! A44   A(20,22,24)           121.3582         estimate D2E/DX2                !
 ! A45   A(23,22,24)           105.8544         estimate D2E/DX2                !
 ! A46   A(2,23,22)            165.0781         estimate D2E/DX2                !
 ! A47   A(12,25,26)           109.5            estimate D2E/DX2                !
 ! A48   L(4,5,18,1,-1)        181.1644         estimate D2E/DX2                !
 ! A49   L(4,5,18,1,-2)        176.7174         estimate D2E/DX2                !
 ! D1    D(3,1,2,23)            62.6449         estimate D2E/DX2                !
 ! D2    D(4,1,2,23)           -59.3615         estimate D2E/DX2                !
 ! D3    D(6,1,2,23)          -157.21           estimate D2E/DX2                !
 ! D4    D(2,1,3,16)          -132.0059         estimate D2E/DX2                !
 ! D5    D(4,1,3,16)           -10.9979         estimate D2E/DX2                !
 ! D6    D(6,1,3,16)            88.4652         estimate D2E/DX2                !
 ! D7    D(2,1,4,5)             26.9639         estimate D2E/DX2                !
 ! D8    D(2,1,4,7)            -95.7809         estimate D2E/DX2                !
 ! D9    D(2,1,4,21)           143.1176         estimate D2E/DX2                !
 ! D10   D(3,1,4,5)           -107.1099         estimate D2E/DX2                !
 ! D11   D(3,1,4,7)            130.1453         estimate D2E/DX2                !
 ! D12   D(3,1,4,21)             9.0439         estimate D2E/DX2                !
 ! D13   D(6,1,4,5)            138.7756         estimate D2E/DX2                !
 ! D14   D(6,1,4,7)             16.0308         estimate D2E/DX2                !
 ! D15   D(6,1,4,21)          -105.0706         estimate D2E/DX2                !
 ! D16   D(2,1,6,10)            70.7198         estimate D2E/DX2                !
 ! D17   D(3,1,6,10)          -143.6092         estimate D2E/DX2                !
 ! D18   D(4,1,6,10)           -35.0563         estimate D2E/DX2                !
 ! D19   D(1,2,23,22)           59.6192         estimate D2E/DX2                !
 ! D20   D(1,3,16,15)           12.4599         estimate D2E/DX2                !
 ! D21   D(1,4,18,19)         -129.7098         estimate D2E/DX2                !
 ! D22   D(1,4,18,20)           -1.6276         estimate D2E/DX2                !
 ! D23   D(7,4,18,19)           -4.4162         estimate D2E/DX2                !
 ! D24   D(7,4,18,20)          123.6659         estimate D2E/DX2                !
 ! D25   D(21,4,18,19)         116.5737         estimate D2E/DX2                !
 ! D26   D(21,4,18,20)        -115.3441         estimate D2E/DX2                !
 ! D27   D(1,4,7,8)            139.0593         estimate D2E/DX2                !
 ! D28   D(1,4,7,9)           -102.7202         estimate D2E/DX2                !
 ! D29   D(1,4,7,10)            17.1924         estimate D2E/DX2                !
 ! D30   D(5,4,7,8)             17.3966         estimate D2E/DX2                !
 ! D31   D(5,4,7,9)            135.6171         estimate D2E/DX2                !
 ! D32   D(5,4,7,10)          -104.4702         estimate D2E/DX2                !
 ! D33   D(21,4,7,8)          -102.8517         estimate D2E/DX2                !
 ! D34   D(21,4,7,9)            15.3688         estimate D2E/DX2                !
 ! D35   D(21,4,7,10)          135.2814         estimate D2E/DX2                !
 ! D36   D(1,4,21,15)           -2.9402         estimate D2E/DX2                !
 ! D37   D(5,4,21,15)          113.1957         estimate D2E/DX2                !
 ! D38   D(7,4,21,15)         -125.428          estimate D2E/DX2                !
 ! D39   D(1,6,10,7)            51.419          estimate D2E/DX2                !
 ! D40   D(1,6,10,11)          -67.1335         estimate D2E/DX2                !
 ! D41   D(1,6,10,12)          173.8679         estimate D2E/DX2                !
 ! D42   D(4,7,10,6)           -48.8049         estimate D2E/DX2                !
 ! D43   D(4,7,10,11)           67.6599         estimate D2E/DX2                !
 ! D44   D(4,7,10,12)         -167.5732         estimate D2E/DX2                !
 ! D45   D(8,7,10,6)          -169.5574         estimate D2E/DX2                !
 ! D46   D(8,7,10,11)          -53.0926         estimate D2E/DX2                !
 ! D47   D(8,7,10,12)           71.6743         estimate D2E/DX2                !
 ! D48   D(9,7,10,6)            70.4167         estimate D2E/DX2                !
 ! D49   D(9,7,10,11)         -173.1186         estimate D2E/DX2                !
 ! D50   D(9,7,10,12)          -48.3517         estimate D2E/DX2                !
 ! D51   D(6,10,12,13)         -64.4763         estimate D2E/DX2                !
 ! D52   D(6,10,12,14)          59.4301         estimate D2E/DX2                !
 ! D53   D(6,10,12,25)         176.3149         estimate D2E/DX2                !
 ! D54   D(7,10,12,13)          53.4553         estimate D2E/DX2                !
 ! D55   D(7,10,12,14)         177.3617         estimate D2E/DX2                !
 ! D56   D(7,10,12,25)         -65.7535         estimate D2E/DX2                !
 ! D57   D(11,10,12,13)        178.3702         estimate D2E/DX2                !
 ! D58   D(11,10,12,14)        -57.7233         estimate D2E/DX2                !
 ! D59   D(11,10,12,25)         59.1615         estimate D2E/DX2                !
 ! D60   D(10,12,25,26)       -170.9667         estimate D2E/DX2                !
 ! D61   D(13,12,25,26)         66.0054         estimate D2E/DX2                !
 ! D62   D(14,12,25,26)        -50.0235         estimate D2E/DX2                !
 ! D63   D(17,15,16,3)        -141.2846         estimate D2E/DX2                !
 ! D64   D(21,15,16,3)          -4.4285         estimate D2E/DX2                !
 ! D65   D(16,15,21,4)          -0.5874         estimate D2E/DX2                !
 ! D66   D(17,15,21,4)         109.9809         estimate D2E/DX2                !
 ! D67   D(5,18,20,22)         -11.6292         estimate D2E/DX2                !
 ! D68   D(19,18,20,22)        128.3966         estimate D2E/DX2                !
 ! D69   D(18,20,22,23)          2.1425         estimate D2E/DX2                !
 ! D70   D(18,20,22,24)        115.5055         estimate D2E/DX2                !
 ! D71   D(20,22,23,2)         -10.076          estimate D2E/DX2                !
 ! D72   D(24,22,23,2)        -135.4967         estimate D2E/DX2                !
 --------------------------------------------------------------------------------
 Trust Radius=3.00D-01 FncErr=1.00D-07 GrdErr=1.00D-06
 Number of steps in this run= 156 maximum allowed number of steps= 156.
 GradGradGradGradGradGradGradGradGradGradGradGradGradGradGradGradGradGrad

 Leave Link  103 at Sun Aug  3 13:15:07 2008, MaxMem=  536870912 cpu:       0.5
 (Enter /usr/local/Chem-Apps/g03_d01/g03/l202.exe)
                          Input orientation:                          
 ---------------------------------------------------------------------
 Center     Atomic     Atomic              Coordinates (Angstroms)
 Number     Number      Type              X           Y           Z
 ---------------------------------------------------------------------
    1         15             0       -2.394810   -0.616588   -0.622526
    2          8             0       -2.462546    0.587533   -1.546542
    3          8             0       -3.585474   -1.416226   -0.126612
    4          7             0       -1.512660    0.050710    0.938897
    5          1             0       -1.697309    1.078250    1.011051
    6         16             0       -0.723779   -1.868684   -1.136314
    7          6             0       -0.043752   -0.215750    0.934700
    8          1             0        0.476599    0.670961    1.315057
    9          1             0        0.153222   -1.059206    1.605915
   10          6             0        0.443832   -0.565264   -0.478785
   11          1             0        0.369036    0.306661   -1.139388
   12          6             0        1.849709   -1.135135   -0.515117
   13          1             0        1.969063   -1.991648    0.155951
   14          1             0        2.139908   -1.412866   -1.531218
   15          8             0       -3.186817   -1.529318    2.565376
   16          1             0       -3.550089   -1.709951    1.668744
   17          1             0       -3.147127   -2.377143    3.020727
   18          8             0       -2.043788    2.775938    1.201187
   19          1             0       -1.437761    3.511378    1.340584
   20          1             0       -2.602781    3.020620    0.418943
   21          1             0       -1.969706   -0.423227    1.739891
   22          8             0       -3.442354    3.054885   -1.066921
   23          1             0       -3.188021    2.149776   -1.368721
   24          1             0       -4.405209    3.082059   -1.098407
   25          8             0        2.839847   -0.186354   -0.109728
   26          1             0        3.714505   -0.542269   -0.282639
 ---------------------------------------------------------------------
                    Distance matrix (angstroms):
                    1          2          3          4          5
     1  P    0.000000
     2  O    1.519309   0.000000
     3  O    1.517575   2.700411   0.000000
     4  N    1.913509   2.714382   2.753864   0.000000
     5  H    2.455108   2.714346   3.328942   1.046489   0.000000
     6  S    2.150364   3.037203   3.068145   2.934776   3.774037
     7  C    2.848350   3.557020   3.887328   1.492886   2.101075
     8  H    3.695538   4.102960   4.789070   2.117394   2.232528
     9  H    3.413843   4.414972   4.136056   2.109974   2.889126
    10  C    2.842742   3.303949   4.133215   2.493413   3.083056
    11  H    2.959456   2.874460   4.430824   2.815237   3.080506
    12  C    4.277426   4.756781   5.456296   3.850443   4.450798
    13  H    4.641143   5.402760   5.591407   4.111767   4.857752
    14  H    4.692915   5.018407   5.895161   4.645942   5.233835
    15  O    3.409262   4.681185   2.723695   2.818639   3.381416
    16  H    2.789271   4.098688   1.819569   2.789932   3.411659
    17  H    4.115681   5.487978   3.319827   3.591653   4.252118
    18  O    3.867606   3.537582   4.659837   2.788864   1.743085
    19  H    4.670101   4.234920   5.571949   3.484707   2.469022
    20  H    3.789088   3.130928   4.576999   3.206101   2.223347
    21  H    2.408135   3.473495   2.660937   1.036870   1.691106
    22  O    3.843768   2.697756   4.571159   4.095374   3.357117
    23  H    2.973005   1.731629   3.796995   3.540906   3.005612
    24  H    4.236526   3.193341   4.674497   4.659026   3.974643
    25  O    5.277281   5.547856   6.541989   4.483317   4.841606
    26  H    6.119214   6.405455   7.353763   5.400650   5.795467
                    6          7          8          9         10
     6  S    0.000000
     7  C    2.735640   0.000000
     8  H    3.728260   1.096218   0.000000
     9  H    2.990686   1.095786   1.783998   0.000000
    10  C    1.869375   1.535525   2.178806   2.162038   0.000000
    11  H    2.434416   2.178336   2.483664   3.073899   1.096469
    12  C    2.747148   2.555862   2.914953   2.717096   1.517420
    13  H    2.989392   2.794940   3.265036   2.503822   2.182611
    14  H    2.926503   3.504598   3.900027   3.730094   2.168575
    15  O    4.459174   3.776695   4.452543   3.506769   4.835073
    16  H    3.985169   3.881476   4.691274   3.760576   4.676921
    17  H    4.838609   4.319035   5.033055   3.825043   5.331461
    18  O    5.364592   3.608512   3.285764   4.438354   4.491569
    19  H    5.965724   3.999936   3.425404   4.846841   4.844534
    20  H    5.463952   4.157971   3.975739   5.064527   4.790233
    21  H    3.451700   2.097779   2.713326   2.220190   3.281442
    22  O    5.624678   5.123869   5.168666   6.082595   5.343578
    23  H    4.719589   4.559374   4.776923   5.505445   4.621016
    24  H    6.169621   5.833642   5.955691   6.726271   6.099188
    25  O    4.072290   3.067057   2.889626   3.305035   2.453704
    26  H    4.710255   3.963966   3.809015   4.064061   3.276630
                   11         12         13         14         15
    11  H    0.000000
    12  C    2.158908   0.000000
    13  H    3.085484   1.094620   0.000000
    14  H    2.499258   1.092617   1.791847   0.000000
    15  O    5.453456   5.917044   5.709832   6.720836   0.000000
    16  H    5.226076   5.852989   5.729654   6.534836   0.984146
    17  H    6.072295   6.246050   5.876304   7.042924   0.963186
    18  O    4.171012   5.779404   6.318652   6.520386   4.658622
    19  H    4.436777   5.986749   6.579749   6.730167   5.474297
    20  H    4.315746   6.161772   6.789238   6.778792   5.064603
    21  H    3.780569   4.492194   4.525783   5.344948   1.840169
    22  O    4.699434   6.772495   7.499756   7.165055   5.854383
    23  H    4.012770   6.074373   6.787601   6.411369   5.386358
    24  H    5.522493   7.566304   8.243013   7.951744   6.014365
    25  O    2.721795   1.430000   2.021865   2.003717   6.729072
    26  H    3.556243   1.970533   2.310764   2.190033   7.530850
                   16         17         18         19         20
    16  H    0.000000
    17  H    1.560571   0.000000
    18  O    4.755076   5.575153   0.000000
    19  H    5.641976   6.357633   0.963106   0.000000
    20  H    4.983743   6.016763   0.992093   1.564461   0.000000
    21  H    2.039199   2.616228   3.245050   3.990430   3.742428
    22  O    5.495374   6.804627   2.679200   3.165890   1.707000
    23  H    4.924914   6.305705   2.881974   3.501100   2.072828
    24  H    5.599260   6.953627   3.310310   3.865067   2.356878
    25  O    6.805556   7.102335   5.860338   5.837341   6.339272
    26  H    7.612207   7.833325   6.809565   6.753721   7.286597
                   21         22         23         24         25
    21  H    0.000000
    22  O    4.705757   0.000000
    23  H    4.215223   0.987416   0.000000
    24  H    5.125879   0.963753   1.556845   0.000000
    25  O    5.158391   7.133575   6.586179   8.009422   0.000000
    26  H    6.034488   8.048307   7.488093   8.929221   0.960000
                   26
    26  H    0.000000
 Stoichiometry    C3H14NO6PS
 Framework group  C1[X(C3H14NO6PS)]
 Deg. of freedom    72
 Full point group                 C1
 Largest Abelian subgroup         C1      NOp   1
 Largest concise Abelian subgroup C1      NOp   1
                         Standard orientation:                         
 ---------------------------------------------------------------------
 Center     Atomic     Atomic              Coordinates (Angstroms)
 Number     Number      Type              X           Y           Z
 ---------------------------------------------------------------------
    1         15             0       -0.761302   -0.749137   -0.766168
    2          8             0       -1.242780    0.464523   -1.543027
    3          8             0       -1.550719   -2.026592   -0.547168
    4          7             0       -0.373252   -0.056684    0.974936
    5          1             0       -0.972989    0.785106    1.138785
    6         16             0        1.315943   -1.129174   -1.171991
    7          6             0        1.068218    0.287389    1.155177
    8          1             0        1.139021    1.230923    1.708733
    9          1             0        1.538866   -0.507315    1.744823
   10          6             0        1.776355    0.401426   -0.202533
   11          1             0        1.403656    1.268610   -0.760505
   12          6             0        3.289363    0.452020   -0.098556
   13          1             0        3.695130   -0.385292    0.478033
   14          1             0        3.754773    0.486135   -1.086504
   15          8             0       -1.374043   -2.418961    2.142321
   16          1             0       -1.551109   -2.576866    1.187199
   17          1             0       -1.025503   -3.244134    2.496348
   18          8             0       -2.007466    2.147619    1.473085
   19          1             0       -1.775593    3.028874    1.784851
   20          1             0       -2.548094    2.276642    0.651305
   21          1             0       -0.659479   -0.799524    1.639286
   22          8             0       -3.195115    2.221573   -0.927359
   23          1             0       -2.563312    1.556239   -1.292250
   24          1             0       -4.075857    1.868658   -1.096369
   25          8             0        3.757807    1.634106    0.555761
   26          1             0        4.712603    1.689401    0.472649
 ---------------------------------------------------------------------
 Rotational constants (GHZ):      0.6694944      0.4264565      0.3701900
 Leave Link  202 at Sun Aug  3 13:15:07 2008, MaxMem=  536870912 cpu:       0.3
 (Enter /usr/local/Chem-Apps/g03_d01/g03/l301.exe)
 Standard basis: Aug-CC-pVDZ (5D, 7F)
 There are   410 symmetry adapted basis functions of A   symmetry.
 Integral buffers will be    131072 words long.
 Raffenetti 2 integral format.
 Two-electron integral symmetry is turned on.
   410 basis functions,   750 primitive gaussians,   434 cartesian basis functions
    59 alpha electrons       59 beta electrons
       nuclear repulsion energy      1082.9875083698 Hartrees.
 IExCor= 402 DFT=T Ex=B+HF Corr=LYP ExCW=0 ScaHFX=  0.200000
 ScaDFX=  0.800000  0.720000  1.000000  0.810000
 IRadAn=      5 IRanWt=     -1 IRanGd=            0 ICorTp=0
 NAtoms=   26 NActive=   26 NUniq=   26 SFac= 7.50D-01 NAtFMM=   80 NAOKFM=F Big=F
 Leave Link  301 at Sun Aug  3 13:15:07 2008, MaxMem=  536870912 cpu:       0.2
 (Enter /usr/local/Chem-Apps/g03_d01/g03/l302.exe)
 NPDir=0 NMtPBC=     1 NCelOv=     1 NCel=       1 NClECP=     1 NCelD=      1
         NCelK=      1 NCelE2=     1 NClLst=     1 CellRange=     0.0.
 One-electron integrals computed using PRISM.
 NBasis=   410 RedAO= T  NBF=   410
 NBsUse=   410 1.00D-06 NBFU=   410
 Precomputing XC quadrature grid using
 IXCGrd= 2 IRadAn=           5 IRanWt=          -1 IRanGd=           0.
 NRdTot=    2243 NPtTot=      604770 NUsed=      620576 NTot=      620608
 NSgBfM=   433   433   433   433.
 Leave Link  302 at Sun Aug  3 13:15:09 2008, MaxMem=  536870912 cpu:      14.1
 (Enter /usr/local/Chem-Apps/g03_d01/g03/l303.exe)
 DipDrv:  MaxL=1.
 Leave Link  303 at Sun Aug  3 13:15:09 2008, MaxMem=  536870912 cpu:       1.5
 (Enter /usr/local/Chem-Apps/g03_d01/g03/l401.exe)
 Harris functional with IExCor=  402 diagonalized for initial guess.
 ExpMin= 2.97D-02 ExpMax= 1.11D+05 ExpMxC= 3.24D+03 IAcc=3 IRadAn=         5 AccDes= 0.00D+00
 HarFok:  IExCor= 402 AccDes= 0.00D+00 IRadAn=         5 IDoV=1
 ScaDFX=  1.000000  1.000000  1.000000  1.000000
 Harris En= -1368.81640810380    
 Initial guess orbital symmetries:
       Occupied  (A) (A) (A) (A) (A) (A) (A) (A) (A) (A) (A) (A)
                 (A) (A) (A) (A) (A) (A) (A) (A) (A) (A) (A) (A)
                 (A) (A) (A) (A) (A) (A) (A) (A) (A) (A) (A) (A)
                 (A) (A) (A) (A) (A) (A) (A) (A) (A) (A) (A) (A)
                 (A) (A) (A) (A) (A) (A) (A) (A) (A) (A) (A)
       Virtual   (A) (A) (A) (A) (A) (A) (A) (A) (A) (A) (A) (A)
                 (A) (A) (A) (A) (A) (A) (A) (A) (A) (A) (A) (A)
                 (A) (A) (A) (A) (A) (A) (A) (A) (A) (A) (A) (A)
                 (A) (A) (A) (A) (A) (A) (A) (A) (A) (A) (A) (A)
                 (A) (A) (A) (A) (A) (A) (A) (A) (A) (A) (A) (A)
                 (A) (A) (A) (A) (A) (A) (A) (A) (A) (A) (A) (A)
                 (A) (A) (A) (A) (A) (A) (A) (A) (A) (A) (A) (A)
                 (A) (A) (A) (A) (A) (A) (A) (A) (A) (A) (A) (A)
                 (A) (A) (A) (A) (A) (A) (A) (A) (A) (A) (A) (A)
                 (A) (A) (A) (A) (A) (A) (A) (A) (A) (A) (A) (A)
                 (A) (A) (A) (A) (A) (A) (A) (A) (A) (A) (A) (A)
                 (A) (A) (A) (A) (A) (A) (A) (A) (A) (A) (A) (A)
                 (A) (A) (A) (A) (A) (A) (A) (A) (A) (A) (A) (A)
                 (A) (A) (A) (A) (A) (A) (A) (A) (A) (A) (A) (A)
                 (A) (A) (A) (A) (A) (A) (A) (A) (A) (A) (A) (A)
                 (A) (A) (A) (A) (A) (A) (A) (A) (A) (A) (A) (A)
                 (A) (A) (A) (A) (A) (A) (A) (A) (A) (A) (A) (A)
                 (A) (A) (A) (A) (A) (A) (A) (A) (A) (A) (A) (A)
                 (A) (A) (A) (A) (A) (A) (A) (A) (A) (A) (A) (A)
                 (A) (A) (A) (A) (A) (A) (A) (A) (A) (A) (A) (A)
                 (A) (A) (A) (A) (A) (A) (A) (A) (A) (A) (A) (A)
                 (A) (A) (A) (A) (A) (A) (A) (A) (A) (A) (A) (A)
                 (A) (A) (A) (A) (A) (A) (A) (A) (A) (A) (A) (A)
                 (A) (A) (A) (A) (A) (A) (A) (A) (A) (A) (A) (A)
                 (A) (A) (A) (A) (A) (A) (A) (A) (A) (A) (A) (A)
                 (A) (A) (A) (A) (A) (A) (A) (A) (A) (A) (A) (A)
                 (A) (A) (A) (A) (A) (A) (A) (A) (A) (A) (A) (A)
                 (A) (A) (A) (A) (A) (A) (A) (A) (A) (A) (A) (A)
                 (A) (A) (A) (A) (A) (A) (A) (A) (A) (A) (A) (A)
                 (A) (A) (A)
 The electronic state of the initial guess is 1-A.
 Leave Link  401 at Sun Aug  3 13:15:13 2008, MaxMem=  536870912 cpu:      61.6
 (Enter /usr/local/Chem-Apps/g03_d01/g03/l502.exe)
 Closed shell SCF:
 Requested convergence on RMS density matrix=1.00D-08 within 128 cycles.
 Requested convergence on MAX density matrix=1.00D-06.
 Requested convergence on             energy=1.00D-06.
 No special actions if energy rises.
 Using DIIS extrapolation, IDIIS=  1040.
 Integral symmetry usage will be decided dynamically.
       620575 words used for storage of precomputed grid.
 IEnd=   1306904 IEndB=   1306904 NGot= 536870912 MDV= 535769439
 LenX= 535769439
 Fock matrices will be formed incrementally for  20 cycles.

 Cycle   1  Pass 1  IDiag  1:
 Petite list used in FoFDir.
 MinBra= 0 MaxBra= 2 Meth= 1.
 IRaf=       0 NMat=   1 IRICut=       1 DoRegI=T DoRafI=F ISym2E= 1 JSym2E=1.
 E= -1368.04127789327    
 DIIS: error= 2.43D-02 at cycle   1 NSaved=   1.
 NSaved= 1 IEnMin= 1 EnMin= -1368.04127789327     IErMin= 1 ErrMin= 2.43D-02
 ErrMax= 2.43D-02 EMaxC= 1.00D-01 BMatC= 7.68D-01 BMatP= 7.68D-01
 IDIUse=3 WtCom= 7.57D-01 WtEn= 2.43D-01
 Coeff-Com:  0.100D+01
 Coeff-En:   0.100D+01
 Coeff:      0.100D+01
 Gap=     0.299 Goal=   None    Shift=    0.000
 GapD=    0.299 DampG=1.000 DampE=0.500 DampFc=0.5000 IDamp=-1.
 Damping current iteration by 5.00D-01
 RMSDP=8.23D-03 MaxDP=5.89D-01              OVMax= 3.68D-01

 Cycle   2  Pass 1  IDiag  1:
 RMSU=  4.01D-03    CP:  9.54D-01
 E= -1368.08052678743     Delta-E=       -0.039248894163 Rises=F Damp=T
 DIIS: error= 9.80D-03 at cycle   2 NSaved=   2.
 NSaved= 2 IEnMin= 2 EnMin= -1368.08052678743     IErMin= 2 ErrMin= 9.80D-03
 ErrMax= 9.80D-03 EMaxC= 1.00D-01 BMatC= 1.47D-01 BMatP= 7.68D-01
 IDIUse=3 WtCom= 9.02D-01 WtEn= 9.80D-02
 Coeff-Com:  0.284D+00 0.716D+00
 Coeff-En:   0.474D+00 0.526D+00
 Coeff:      0.302D+00 0.698D+00
 Gap=     0.273 Goal=   None    Shift=    0.000
 RMSDP=3.27D-03 MaxDP=2.60D-01 DE=-3.92D-02 OVMax= 2.17D-01

 Cycle   3  Pass 1  IDiag  1:
 RMSU=  2.53D-03    CP:  8.96D-01  5.75D-01
 E= -1368.58098126145     Delta-E=       -0.500454474015 Rises=F Damp=F
 DIIS: error= 4.68D-03 at cycle   3 NSaved=   3.
 NSaved= 3 IEnMin= 3 EnMin= -1368.58098126145     IErMin= 3 ErrMin= 4.68D-03
 ErrMax= 4.68D-03 EMaxC= 1.00D-01 BMatC= 5.26D-02 BMatP= 1.47D-01
 IDIUse=3 WtCom= 9.53D-01 WtEn= 4.68D-02
 Coeff-Com:  0.134D+00 0.428D+00 0.439D+00
 Coeff-En:   0.000D+00 0.000D+00 0.100D+01
 Coeff:      0.127D+00 0.408D+00 0.465D+00
 Gap=     0.234 Goal=   None    Shift=    0.000
 RMSDP=1.01D-03 MaxDP=4.78D-02 DE=-5.00D-01 OVMax= 5.31D-02

 Cycle   4  Pass 1  IDiag  1:
 RMSU=  8.13D-04    CP:  9.03D-01  6.78D-01  8.35D-01
 E= -1368.62570719917     Delta-E=       -0.044725937721 Rises=F Damp=F
 DIIS: error= 1.47D-03 at cycle   4 NSaved=   4.
 NSaved= 4 IEnMin= 4 EnMin= -1368.62570719917     IErMin= 4 ErrMin= 1.47D-03
 ErrMax= 1.47D-03 EMaxC= 1.00D-01 BMatC= 4.60D-03 BMatP= 5.26D-02
 IDIUse=3 WtCom= 9.85D-01 WtEn= 1.47D-02
 Coeff-Com:  0.139D-01 0.118D+00 0.239D+00 0.629D+00
 Coeff-En:   0.000D+00 0.000D+00 0.000D+00 0.100D+01
 Coeff:      0.137D-01 0.117D+00 0.236D+00 0.634D+00
 Gap=     0.230 Goal=   None    Shift=    0.000
 RMSDP=3.05D-04 MaxDP=1.55D-02 DE=-4.47D-02 OVMax= 1.14D-02

 Cycle   5  Pass 1  IDiag  1:
 RMSU=  2.68D-04    CP:  9.04D-01  6.82D-01  8.25D-01  8.25D-01
 E= -1368.62899332358     Delta-E=       -0.003286124417 Rises=F Damp=F
 DIIS: error= 4.32D-04 at cycle   5 NSaved=   5.
 NSaved= 5 IEnMin= 5 EnMin= -1368.62899332358     IErMin= 5 ErrMin= 4.32D-04
 ErrMax= 4.32D-04 EMaxC= 1.00D-01 BMatC= 5.19D-04 BMatP= 4.60D-03
 IDIUse=3 WtCom= 9.96D-01 WtEn= 4.32D-03
 Coeff-Com: -0.671D-02 0.228D-01 0.713D-01 0.331D+00 0.582D+00
 Coeff-En:   0.000D+00 0.000D+00 0.000D+00 0.508D-01 0.949D+00
 Coeff:     -0.668D-02 0.227D-01 0.710D-01 0.329D+00 0.584D+00
 Gap=     0.225 Goal=   None    Shift=    0.000
 RMSDP=1.04D-04 MaxDP=4.69D-03 DE=-3.29D-03 OVMax= 5.08D-03

 Cycle   6  Pass 1  IDiag  1:
 RMSU=  8.44D-05    CP:  9.04D-01  6.90D-01  8.27D-01  8.32D-01  8.12D-01
 E= -1368.62945638293     Delta-E=       -0.000463059345 Rises=F Damp=F
 DIIS: error= 9.46D-05 at cycle   6 NSaved=   6.
 NSaved= 6 IEnMin= 6 EnMin= -1368.62945638293     IErMin= 6 ErrMin= 9.46D-05
 ErrMax= 9.46D-05 EMaxC= 1.00D-01 BMatC= 2.65D-05 BMatP= 5.19D-04
 IDIUse=1 WtCom= 1.00D+00 WtEn= 0.00D+00
 Coeff-Com: -0.383D-02 0.310D-02 0.159D-01 0.104D+00 0.265D+00 0.615D+00
 Coeff:     -0.383D-02 0.310D-02 0.159D-01 0.104D+00 0.265D+00 0.615D+00
 Gap=     0.226 Goal=   None    Shift=    0.000
 RMSDP=3.23D-05 MaxDP=2.43D-03 DE=-4.63D-04 OVMax= 1.11D-03

 Cycle   7  Pass 1  IDiag  1:
 RMSU=  2.57D-05    CP:  9.04D-01  6.91D-01  8.29D-01  8.45D-01  8.18D-01
                    CP:  8.66D-01
 E= -1368.62947648394     Delta-E=       -0.000020101013 Rises=F Damp=F
 DIIS: error= 4.47D-05 at cycle   7 NSaved=   7.
 NSaved= 7 IEnMin= 7 EnMin= -1368.62947648394     IErMin= 7 ErrMin= 4.47D-05
 ErrMax= 4.47D-05 EMaxC= 1.00D-01 BMatC= 5.70D-06 BMatP= 2.65D-05
 IDIUse=1 WtCom= 1.00D+00 WtEn= 0.00D+00
 Coeff-Com: -0.174D-02 0.406D-04 0.407D-02 0.370D-01 0.116D+00 0.378D+00
 Coeff-Com:  0.467D+00
 Coeff:     -0.174D-02 0.406D-04 0.407D-02 0.370D-01 0.116D+00 0.378D+00
 Coeff:      0.467D+00
 Gap=     0.226 Goal=   None    Shift=    0.000
 RMSDP=8.11D-06 MaxDP=4.03D-04 DE=-2.01D-05 OVMax= 6.08D-04

 Cycle   8  Pass 1  IDiag  1:
 RMSU=  6.86D-06    CP:  9.04D-01  6.91D-01  8.29D-01  8.46D-01  8.22D-01
                    CP:  8.65D-01  8.39D-01
 E= -1368.62948073991     Delta-E=       -0.000004255971 Rises=F Damp=F
 DIIS: error= 2.17D-05 at cycle   8 NSaved=   8.
 NSaved= 8 IEnMin= 8 EnMin= -1368.62948073991     IErMin= 8 ErrMin= 2.17D-05
 ErrMax= 2.17D-05 EMaxC= 1.00D-01 BMatC= 6.66D-07 BMatP= 5.70D-06
 IDIUse=1 WtCom= 1.00D+00 WtEn= 0.00D+00
 Coeff-Com: -0.533D-03-0.426D-03 0.373D-03 0.881D-02 0.371D-01 0.158D+00
 Coeff-Com:  0.291D+00 0.506D+00
 Coeff:     -0.533D-03-0.426D-03 0.373D-03 0.881D-02 0.371D-01 0.158D+00
 Coeff:      0.291D+00 0.506D+00
 Gap=     0.226 Goal=   None    Shift=    0.000
 RMSDP=3.41D-06 MaxDP=1.36D-04 DE=-4.26D-06 OVMax= 2.16D-04

 Cycle   9  Pass 1  IDiag  1:
 RMSU=  2.48D-06    CP:  9.04D-01  6.91D-01  8.29D-01  8.45D-01  8.23D-01
                    CP:  8.69D-01  8.07D-01  7.38D-01
 E= -1368.62948122323     Delta-E=       -0.000000483316 Rises=F Damp=F
 DIIS: error= 6.08D-06 at cycle   9 NSaved=   9.
 NSaved= 9 IEnMin= 9 EnMin= -1368.62948122323     IErMin= 9 ErrMin= 6.08D-06
 ErrMax= 6.08D-06 EMaxC= 1.00D-01 BMatC= 7.82D-08 BMatP= 6.66D-07
 IDIUse=1 WtCom= 1.00D+00 WtEn= 0.00D+00
 Coeff-Com: -0.646D-04-0.235D-03-0.258D-03 0.492D-03 0.653D-02 0.412D-01
 Coeff-Com:  0.104D+00 0.301D+00 0.548D+00
 Coeff:     -0.646D-04-0.235D-03-0.258D-03 0.492D-03 0.653D-02 0.412D-01
 Coeff:      0.104D+00 0.301D+00 0.548D+00
 Gap=     0.226 Goal=   None    Shift=    0.000
 RMSDP=1.21D-06 MaxDP=4.84D-05 DE=-4.83D-07 OVMax= 4.91D-05

 Cycle  10  Pass 1  IDiag  1:
 RMSU=  9.63D-07    CP:  9.04D-01  6.91D-01  8.29D-01  8.45D-01  8.24D-01
                    CP:  8.71D-01  8.08D-01  7.56D-01  7.78D-01
 E= -1368.62948128781     Delta-E=       -0.000000064580 Rises=F Damp=F
 DIIS: error= 1.82D-06 at cycle  10 NSaved=  10.
 NSaved=10 IEnMin=10 EnMin= -1368.62948128781     IErMin=10 ErrMin= 1.82D-06
 ErrMax= 1.82D-06 EMaxC= 1.00D-01 BMatC= 4.64D-09 BMatP= 7.82D-08
 IDIUse=1 WtCom= 1.00D+00 WtEn= 0.00D+00
 Coeff-Com:  0.105D-04-0.773D-04-0.163D-03-0.399D-03 0.323D-03 0.743D-02
 Coeff-Com:  0.264D-01 0.102D+00 0.270D+00 0.595D+00
 Coeff:      0.105D-04-0.773D-04-0.163D-03-0.399D-03 0.323D-03 0.743D-02
 Coeff:      0.264D-01 0.102D+00 0.270D+00 0.595D+00
 Gap=     0.226 Goal=   None    Shift=    0.000
 RMSDP=3.33D-07 MaxDP=1.39D-05 DE=-6.46D-08 OVMax= 1.26D-05

 Cycle  11  Pass 1  IDiag  1:
 RMSU=  2.07D-07    CP:  9.04D-01  6.91D-01  8.29D-01  8.45D-01  8.24D-01
                    CP:  8.71D-01  8.13D-01  7.56D-01  7.62D-01  8.22D-01
 E= -1368.62948129154     Delta-E=       -0.000000003733 Rises=F Damp=F
 DIIS: error= 4.72D-07 at cycle  11 NSaved=  11.
 NSaved=11 IEnMin=11 EnMin= -1368.62948129154     IErMin=11 ErrMin= 4.72D-07
 ErrMax= 4.72D-07 EMaxC= 1.00D-01 BMatC= 4.51D-10 BMatP= 4.64D-09
 IDIUse=1 WtCom= 1.00D+00 WtEn= 0.00D+00
 Coeff-Com:  0.105D-04-0.199D-04-0.716D-04-0.285D-03-0.533D-03-0.277D-03
 Coeff-Com:  0.333D-02 0.227D-01 0.840D-01 0.298D+00 0.593D+00
 Coeff:      0.105D-04-0.199D-04-0.716D-04-0.285D-03-0.533D-03-0.277D-03
 Coeff:      0.333D-02 0.227D-01 0.840D-01 0.298D+00 0.593D+00
 Gap=     0.226 Goal=   None    Shift=    0.000
 RMSDP=9.83D-08 MaxDP=4.87D-06 DE=-3.73D-09 OVMax= 3.23D-06

 Cycle  12  Pass 1  IDiag  1:
 RMSU=  7.94D-08    CP:  9.04D-01  6.91D-01  8.29D-01  8.45D-01  8.24D-01
                    CP:  8.71D-01  8.12D-01  7.58D-01  7.72D-01  7.90D-01
                    CP:  9.75D-01
 E= -1368.62948129188     Delta-E=       -0.000000000343 Rises=F Damp=F
 DIIS: error= 1.24D-07 at cycle  12 NSaved=  12.
 NSaved=12 IEnMin=12 EnMin= -1368.62948129188     IErMin=12 ErrMin= 1.24D-07
 ErrMax= 1.24D-07 EMaxC= 1.00D-01 BMatC= 3.64D-11 BMatP= 4.51D-10
 IDIUse=1 WtCom= 1.00D+00 WtEn= 0.00D+00
 Coeff-Com:  0.190D-05 0.468D-06-0.132D-04-0.619D-04-0.198D-03-0.655D-03
 Coeff-Com: -0.983D-03-0.148D-03 0.795D-02 0.705D-01 0.271D+00 0.653D+00
 Coeff:      0.190D-05 0.468D-06-0.132D-04-0.619D-04-0.198D-03-0.655D-03
 Coeff:     -0.983D-03-0.148D-03 0.795D-02 0.705D-01 0.271D+00 0.653D+00
 Gap=     0.226 Goal=   None    Shift=    0.000
 RMSDP=3.42D-08 MaxDP=2.26D-06 DE=-3.43D-10 OVMax= 1.14D-06

 Cycle  13  Pass 1  IDiag  1:
 RMSU=  2.15D-08    CP:  9.04D-01  6.91D-01  8.29D-01  8.45D-01  8.24D-01
                    CP:  8.71D-01  8.12D-01  7.58D-01  7.73D-01  8.09D-01
                    CP:  9.66D-01  8.57D-01
 E= -1368.62948129182     Delta-E=        0.000000000069 Rises=F Damp=F
 DIIS: error= 3.27D-08 at cycle  13 NSaved=  13.
 NSaved=13 IEnMin=12 EnMin= -1368.62948129188     IErMin=13 ErrMin= 3.27D-08
 ErrMax= 3.27D-08 EMaxC= 1.00D-01 BMatC= 2.54D-12 BMatP= 3.64D-11
 IDIUse=1 WtCom= 1.00D+00 WtEn= 0.00D+00
 Coeff-Com: -0.294D-08 0.152D-05-0.177D-05-0.114D-04-0.655D-04-0.307D-03
 Coeff-Com: -0.728D-03-0.177D-02-0.275D-02 0.110D-01 0.810D-01 0.284D+00
 Coeff-Com:  0.630D+00
 Coeff:     -0.294D-08 0.152D-05-0.177D-05-0.114D-04-0.655D-04-0.307D-03
 Coeff:     -0.728D-03-0.177D-02-0.275D-02 0.110D-01 0.810D-01 0.284D+00
 Coeff:      0.630D+00
 Gap=     0.226 Goal=   None    Shift=    0.000
 RMSDP=9.39D-09 MaxDP=4.58D-07 DE= 6.91D-11 OVMax= 3.36D-07

 SCF Done:  E(RB+HF-LYP) =  -1368.62948129     A.U. after   13 cycles
             Convg  =    0.9394D-08             -V/T =  2.0044
             S**2   =   0.0000
 KE= 1.362645095274D+03 PE=-5.401909242416D+03 EE= 1.587647157481D+03
 Leave Link  502 at Sun Aug  3 13:21:58 2008, MaxMem=  536870912 cpu:    3485.0
 (Enter /usr/local/Chem-Apps/g03_d01/g03/l601.exe)
 Copying SCF densities to generalized density rwf, ISCF=0 IROHF=0.

 **********************************************************************

            Population analysis using the SCF density.

 **********************************************************************

 Orbital symmetries:
       Occupied  (A) (A) (A) (A) (A) (A) (A) (A) (A) (A) (A) (A)
                 (A) (A) (A) (A) (A) (A) (A) (A) (A) (A) (A) (A)
                 (A) (A) (A) (A) (A) (A) (A) (A) (A) (A) (A) (A)
                 (A) (A) (A) (A) (A) (A) (A) (A) (A) (A) (A) (A)
                 (A) (A) (A) (A) (A) (A) (A) (A) (A) (A) (A)
       Virtual   (A) (A) (A) (A) (A) (A) (A) (A) (A) (A) (A) (A)
                 (A) (A) (A) (A) (A) (A) (A) (A) (A) (A) (A) (A)
                 (A) (A) (A) (A) (A) (A) (A) (A) (A) (A) (A) (A)
                 (A) (A) (A) (A) (A) (A) (A) (A) (A) (A) (A) (A)
                 (A) (A) (A) (A) (A) (A) (A) (A) (A) (A) (A) (A)
                 (A) (A) (A) (A) (A) (A) (A) (A) (A) (A) (A) (A)
                 (A) (A) (A) (A) (A) (A) (A) (A) (A) (A) (A) (A)
                 (A) (A) (A) (A) (A) (A) (A) (A) (A) (A) (A) (A)
                 (A) (A) (A) (A) (A) (A) (A) (A) (A) (A) (A) (A)
                 (A) (A) (A) (A) (A) (A) (A) (A) (A) (A) (A) (A)
                 (A) (A) (A) (A) (A) (A) (A) (A) (A) (A) (A) (A)
                 (A) (A) (A) (A) (A) (A) (A) (A) (A) (A) (A) (A)
                 (A) (A) (A) (A) (A) (A) (A) (A) (A) (A) (A) (A)
                 (A) (A) (A) (A) (A) (A) (A) (A) (A) (A) (A) (A)
                 (A) (A) (A) (A) (A) (A) (A) (A) (A) (A) (A) (A)
                 (A) (A) (A) (A) (A) (A) (A) (A) (A) (A) (A) (A)
                 (A) (A) (A) (A) (A) (A) (A) (A) (A) (A) (A) (A)
                 (A) (A) (A) (A) (A) (A) (A) (A) (A) (A) (A) (A)
                 (A) (A) (A) (A) (A) (A) (A) (A) (A) (A) (A) (A)
                 (A) (A) (A) (A) (A) (A) (A) (A) (A) (A) (A) (A)
                 (A) (A) (A) (A) (A) (A) (A) (A) (A) (A) (A) (A)
                 (A) (A) (A) (A) (A) (A) (A) (A) (A) (A) (A) (A)
                 (A) (A) (A) (A) (A) (A) (A) (A) (A) (A) (A) (A)
                 (A) (A) (A) (A) (A) (A) (A) (A) (A) (A) (A) (A)
                 (A) (A) (A) (A) (A) (A) (A) (A) (A) (A) (A) (A)
                 (A) (A) (A) (A) (A) (A) (A) (A) (A) (A) (A) (A)
                 (A) (A) (A) (A) (A) (A) (A) (A) (A) (A) (A) (A)
                 (A) (A) (A) (A) (A) (A) (A) (A) (A) (A) (A) (A)
                 (A) (A) (A) (A) (A) (A) (A) (A) (A) (A) (A) (A)
                 (A) (A) (A)
 The electronic state is 1-A.
 Alpha  occ. eigenvalues --  -88.89839 -77.23141 -19.17283 -19.16000 -19.15935
 Alpha  occ. eigenvalues --  -19.15015 -19.12449 -19.12377 -14.41112 -10.26420
 Alpha  occ. eigenvalues --  -10.26409 -10.25587  -7.95934  -6.68015  -5.92289
 Alpha  occ. eigenvalues --   -5.92052  -5.91347  -4.84449  -4.84234  -4.84107
 Alpha  occ. eigenvalues --   -1.05242  -1.02923  -1.02445  -1.01308  -1.00766
 Alpha  occ. eigenvalues --   -0.96389  -0.95504  -0.83804  -0.73411  -0.71352
 Alpha  occ. eigenvalues --   -0.61265  -0.57818  -0.57532  -0.54938  -0.54497
 Alpha  occ. eigenvalues --   -0.53790  -0.53166  -0.52159  -0.50266  -0.46204
 Alpha  occ. eigenvalues --   -0.44931  -0.43662  -0.42466  -0.41770  -0.41153
 Alpha  occ. eigenvalues --   -0.39844  -0.39331  -0.38166  -0.36689  -0.35662
 Alpha  occ. eigenvalues --   -0.33620  -0.32829  -0.32287  -0.31671  -0.30936
 Alpha  occ. eigenvalues --   -0.30409  -0.30176  -0.29588  -0.25901
 Alpha virt. eigenvalues --   -0.03317  -0.02725  -0.01779  -0.01452  -0.00172
 Alpha virt. eigenvalues --    0.00619   0.00904   0.01737   0.02031   0.02588
 Alpha virt. eigenvalues --    0.04216   0.04333   0.04700   0.05044   0.05583
 Alpha virt. eigenvalues --    0.06218   0.06503   0.06700   0.07107   0.07617
 Alpha virt. eigenvalues --    0.08014   0.08033   0.08240   0.08990   0.09153
 Alpha virt. eigenvalues --    0.09852   0.10202   0.10428   0.10993   0.11314
 Alpha virt. eigenvalues --    0.11751   0.12103   0.12349   0.12661   0.12972
 Alpha virt. eigenvalues --    0.13364   0.13711   0.14437   0.15118   0.15146
 Alpha virt. eigenvalues --    0.16212   0.16723   0.17095   0.17515   0.17762
 Alpha virt. eigenvalues --    0.18126   0.18318   0.18836   0.18980   0.19627
 Alpha virt. eigenvalues --    0.19748   0.20209   0.20718   0.21008   0.21273
 Alpha virt. eigenvalues --    0.21709   0.22137   0.22602   0.22889   0.23036
 Alpha virt. eigenvalues --    0.23402   0.24039   0.24160   0.25059   0.25381
 Alpha virt. eigenvalues --    0.25891   0.26761   0.26918   0.27789   0.28515
 Alpha virt. eigenvalues --    0.28662   0.29126   0.29557   0.29831   0.30542
 Alpha virt. eigenvalues --    0.31463   0.31737   0.32343   0.32843   0.33006
 Alpha virt. eigenvalues --    0.33073   0.33751   0.34351   0.34742   0.35013
 Alpha virt. eigenvalues --    0.35342   0.35752   0.36510   0.37435   0.37736
 Alpha virt. eigenvalues --    0.38075   0.38706   0.38985   0.39495   0.40188
 Alpha virt. eigenvalues --    0.40593   0.41448   0.41696   0.42449   0.43921
 Alpha virt. eigenvalues --    0.44166   0.44318   0.44824   0.45390   0.46287
 Alpha virt. eigenvalues --    0.46555   0.47307   0.47620   0.47986   0.48648
 Alpha virt. eigenvalues --    0.49108   0.49687   0.50237   0.50539   0.51299
 Alpha virt. eigenvalues --    0.51600   0.51782   0.53258   0.53782   0.53989
 Alpha virt. eigenvalues --    0.54741   0.55363   0.55823   0.56681   0.57030
 Alpha virt. eigenvalues --    0.57568   0.58460   0.59462   0.59601   0.61068
 Alpha virt. eigenvalues --    0.61857   0.62570   0.63233   0.63801   0.65313
 Alpha virt. eigenvalues --    0.65758   0.66383   0.66933   0.67477   0.67826
 Alpha virt. eigenvalues --    0.69217   0.70003   0.71135   0.71945   0.72268
 Alpha virt. eigenvalues --    0.72416   0.72938   0.73724   0.75172   0.75881
 Alpha virt. eigenvalues --    0.76563   0.77647   0.78396   0.79603   0.80286
 Alpha virt. eigenvalues --    0.80855   0.81692   0.82256   0.83058   0.83560
 Alpha virt. eigenvalues --    0.84303   0.85056   0.86590   0.87327   0.87672
 Alpha virt. eigenvalues --    0.89140   0.89849   0.90552   0.92044   0.93311
 Alpha virt. eigenvalues --    0.94168   0.95274   0.96020   0.96768   0.97234
 Alpha virt. eigenvalues --    0.98694   0.99332   1.00041   1.00840   1.02037
 Alpha virt. eigenvalues --    1.02270   1.02662   1.03728   1.04479   1.05040
 Alpha virt. eigenvalues --    1.05115   1.06597   1.07661   1.08840   1.09299
 Alpha virt. eigenvalues --    1.10341   1.11239   1.11604   1.11910   1.12782
 Alpha virt. eigenvalues --    1.13256   1.15091   1.17096   1.17624   1.18153
 Alpha virt. eigenvalues --    1.18280   1.19542   1.21135   1.21625   1.22185
 Alpha virt. eigenvalues --    1.22624   1.23509   1.25756   1.27838   1.28235
 Alpha virt. eigenvalues --    1.28916   1.30617   1.31605   1.33176   1.34224
 Alpha virt. eigenvalues --    1.35287   1.36180   1.37551   1.38224   1.39671
 Alpha virt. eigenvalues --    1.41301   1.42348   1.43531   1.45754   1.46256
 Alpha virt. eigenvalues --    1.47763   1.49063   1.50884   1.53689   1.54263
 Alpha virt. eigenvalues --    1.55863   1.57233   1.60311   1.61555   1.61788
 Alpha virt. eigenvalues --    1.62413   1.65001   1.65356   1.67933   1.68503
 Alpha virt. eigenvalues --    1.71475   1.72326   1.72932   1.74551   1.76468
 Alpha virt. eigenvalues --    1.76894   1.77310   1.78631   1.79646   1.80282
 Alpha virt. eigenvalues --    1.81798   1.82811   1.84593   1.85824   1.88010
 Alpha virt. eigenvalues --    1.88791   1.90568   1.91140   1.92198   1.93865
 Alpha virt. eigenvalues --    1.95636   1.96438   1.97581   1.99608   2.00834
 Alpha virt. eigenvalues --    2.01058   2.01997   2.04327   2.05674   2.07330
 Alpha virt. eigenvalues --    2.09554   2.09962   2.12977   2.14178   2.16076
 Alpha virt. eigenvalues --    2.17143   2.17554   2.19204   2.19816   2.20732
 Alpha virt. eigenvalues --    2.22474   2.25489   2.26861   2.28390   2.30147
 Alpha virt. eigenvalues --    2.32476   2.34017   2.35271   2.37609   2.41099
 Alpha virt. eigenvalues --    2.41909   2.44256   2.48664   2.50384   2.51047
 Alpha virt. eigenvalues --    2.52246   2.55077   2.56187   2.58001   2.60257
 Alpha virt. eigenvalues --    2.62274   2.62826   2.63808   2.65506   2.67285
 Alpha virt. eigenvalues --    2.69212   2.72647   2.73805   2.76766   2.78070
 Alpha virt. eigenvalues --    2.81040   2.81675   2.85074   2.86237   2.89163
 Alpha virt. eigenvalues --    2.94514   3.05665   3.15494   3.25016   3.35139
 Alpha virt. eigenvalues --    3.36026   3.36315   3.37276   3.38580   3.39323
 Alpha virt. eigenvalues --    3.39951   3.40504   3.41548   3.42447   3.42634
 Alpha virt. eigenvalues --    3.42864   3.45017   3.46212   3.47257   3.48479
 Alpha virt. eigenvalues --    3.49250   3.51898   3.52259   3.53102   3.55034
 Alpha virt. eigenvalues --    3.58716   3.59718   3.62889   3.70000   3.78835
 Alpha virt. eigenvalues --    3.81155   3.82787   3.94891   4.00171   4.01936
 Alpha virt. eigenvalues --    4.02758
          Condensed to atoms (all electrons):
              1          2          3          4          5          6
     1  P   13.728303  -0.204017  -0.207672  -0.083200  -0.061755   0.203281
     2  O   -0.204017   9.064301   0.077831  -0.150602   0.037213   0.032968
     3  O   -0.207672   0.077831   8.937406  -0.020799   0.018245   0.027736
     4  N   -0.083200  -0.150602  -0.020799   7.689842   0.211489  -0.205798
     5  H   -0.061755   0.037213   0.018245   0.211489   1.007449   0.018560
     6  S    0.203281   0.032968   0.027736  -0.205798   0.018560  16.196021
     7  C   -0.268547   0.135962   0.049106  -0.301795  -0.012568   0.084724
     8  H    0.008310   0.019401   0.002277  -0.189749  -0.030285   0.082107
     9  H    0.036937  -0.003121  -0.007139  -0.331392  -0.015143   0.020636
    10  C    0.206131  -0.104017   0.029179   0.421838  -0.046284  -0.175159
    11  H   -0.055359   0.041507  -0.000764  -0.163077   0.013579  -0.067571
    12  C   -0.126730  -0.025761   0.017051   0.024431  -0.005682  -0.043893
    13  H    0.002351  -0.001488   0.002056   0.028300   0.009313   0.006406
    14  H    0.009930   0.004410  -0.000054  -0.032971  -0.004814  -0.010362
    15  O   -0.010638  -0.000824  -0.041472  -0.058247   0.016848   0.004757
    16  H   -0.009146   0.001815   0.082119   0.005118   0.003245  -0.002904
    17  H   -0.001497  -0.000641  -0.006998   0.021706  -0.000805  -0.000374
    18  O    0.013444   0.010978  -0.002071  -0.132576  -0.061390  -0.001214
    19  H    0.007173  -0.002651  -0.000662   0.022270   0.010760  -0.000885
    20  H   -0.016256  -0.002001   0.003419   0.009926  -0.005289   0.002069
    21  H    0.000411   0.018854  -0.023374   0.361877  -0.223125   0.011064
    22  O   -0.017679  -0.030400   0.001713   0.009196  -0.005692  -0.000689
    23  H   -0.005654   0.088551   0.002714  -0.003864   0.004334   0.000495
    24  H    0.000009  -0.014005  -0.000950   0.000651  -0.001465  -0.000203
    25  O   -0.012513  -0.000173   0.000244  -0.008131   0.006601   0.006882
    26  H    0.000936  -0.000136   0.000025   0.002417  -0.000651  -0.002331
              7          8          9         10         11         12
     1  P   -0.268547   0.008310   0.036937   0.206131  -0.055359  -0.126730
     2  O    0.135962   0.019401  -0.003121  -0.104017   0.041507  -0.025761
     3  O    0.049106   0.002277  -0.007139   0.029179  -0.000764   0.017051
     4  N   -0.301795  -0.189749  -0.331392   0.421838  -0.163077   0.024431
     5  H   -0.012568  -0.030285  -0.015143  -0.046284   0.013579  -0.005682
     6  S    0.084724   0.082107   0.020636  -0.175159  -0.067571  -0.043893
     7  C    5.862602  -0.370678   0.291970  -0.634793   0.365800  -0.302576
     8  H   -0.370678   2.587284  -0.625389   0.063054  -0.237653   0.111970
     9  H    0.291970  -0.625389   2.616133  -0.621930   0.190001  -0.027377
    10  C   -0.634793   0.063054  -0.621930   8.088092  -0.846871  -0.730830
    11  H    0.365800  -0.237653   0.190001  -0.846871   2.609452  -0.239788
    12  C   -0.302576   0.111970  -0.027377  -0.730830  -0.239788   6.298053
    13  H    0.009962  -0.003637  -0.019422  -0.436387   0.105784   0.076360
    14  H    0.070030   0.016492   0.003985   0.361392  -0.139601  -0.459846
    15  O    0.004957  -0.007580   0.017612   0.002186   0.000634  -0.004216
    16  H   -0.005270   0.001234  -0.000504   0.002543  -0.000731  -0.000725
    17  H   -0.006044   0.000008  -0.002525  -0.000436  -0.000332   0.000530
    18  O   -0.054037   0.050218  -0.014861   0.028333  -0.005637   0.002083
    19  H    0.003095  -0.006822   0.001108  -0.006262   0.000251  -0.001699
    20  H    0.000131   0.003105  -0.001669  -0.003168  -0.001969   0.000497
    21  H   -0.142384  -0.005839  -0.048470   0.025447  -0.000261  -0.039617
    22  O    0.003091  -0.000973  -0.000064  -0.001816  -0.000087  -0.000062
    23  H    0.007017   0.002818  -0.000181  -0.011138  -0.004636  -0.001365
    24  H   -0.001042  -0.000507   0.000074   0.001432   0.000233   0.000127
    25  O    0.024589  -0.019988   0.009921  -0.033506   0.018371   0.014664
    26  H   -0.007539  -0.000032  -0.000511   0.069610  -0.000917  -0.068355
             13         14         15         16         17         18
     1  P    0.002351   0.009930  -0.010638  -0.009146  -0.001497   0.013444
     2  O   -0.001488   0.004410  -0.000824   0.001815  -0.000641   0.010978
     3  O    0.002056  -0.000054  -0.041472   0.082119  -0.006998  -0.002071
     4  N    0.028300  -0.032971  -0.058247   0.005118   0.021706  -0.132576
     5  H    0.009313  -0.004814   0.016848   0.003245  -0.000805  -0.061390
     6  S    0.006406  -0.010362   0.004757  -0.002904  -0.000374  -0.001214
     7  C    0.009962   0.070030   0.004957  -0.005270  -0.006044  -0.054037
     8  H   -0.003637   0.016492  -0.007580   0.001234   0.000008   0.050218
     9  H   -0.019422   0.003985   0.017612  -0.000504  -0.002525  -0.014861
    10  C   -0.436387   0.361392   0.002186   0.002543  -0.000436   0.028333
    11  H    0.105784  -0.139601   0.000634  -0.000731  -0.000332  -0.005637
    12  C    0.076360  -0.459846  -0.004216  -0.000725   0.000530   0.002083
    13  H    2.160036  -0.389336  -0.000201  -0.000022   0.000081   0.000385
    14  H   -0.389336   2.113986  -0.000065  -0.000025  -0.000010   0.000323
    15  O   -0.000201  -0.000065   7.783863   0.294157   0.328117   0.001585
    16  H   -0.000022  -0.000025   0.294157   0.590454  -0.118300  -0.000137
    17  H    0.000081  -0.000010   0.328117  -0.118300   0.667692  -0.000031
    18  O    0.000385   0.000323   0.001585  -0.000137  -0.000031   7.861521
    19  H   -0.000329  -0.000099   0.000134   0.000033  -0.000002   0.329821
    20  H   -0.000148   0.000306  -0.000355  -0.000218  -0.000024   0.311420
    21  H   -0.005719   0.001456  -0.017318  -0.003015   0.009726   0.017514
    22  O   -0.000046   0.000037  -0.000099  -0.000018  -0.000045  -0.059272
    23  H   -0.000208   0.000121  -0.000344   0.000417  -0.000078  -0.007642
    24  H    0.000009   0.000006   0.000073  -0.000053   0.000017   0.002303
    25  O   -0.066045  -0.052569   0.000014  -0.000001   0.000028   0.000129
    26  H   -0.028509  -0.051666  -0.000002   0.000018  -0.000004  -0.000026
             19         20         21         22         23         24
     1  P    0.007173  -0.016256   0.000411  -0.017679  -0.005654   0.000009
     2  O   -0.002651  -0.002001   0.018854  -0.030400   0.088551  -0.014005
     3  O   -0.000662   0.003419  -0.023374   0.001713   0.002714  -0.000950
     4  N    0.022270   0.009926   0.361877   0.009196  -0.003864   0.000651
     5  H    0.010760  -0.005289  -0.223125  -0.005692   0.004334  -0.001465
     6  S   -0.000885   0.002069   0.011064  -0.000689   0.000495  -0.000203
     7  C    0.003095   0.000131  -0.142384   0.003091   0.007017  -0.001042
     8  H   -0.006822   0.003105  -0.005839  -0.000973   0.002818  -0.000507
     9  H    0.001108  -0.001669  -0.048470  -0.000064  -0.000181   0.000074
    10  C   -0.006262  -0.003168   0.025447  -0.001816  -0.011138   0.001432
    11  H    0.000251  -0.001969  -0.000261  -0.000087  -0.004636   0.000233
    12  C   -0.001699   0.000497  -0.039617  -0.000062  -0.001365   0.000127
    13  H   -0.000329  -0.000148  -0.005719  -0.000046  -0.000208   0.000009
    14  H   -0.000099   0.000306   0.001456   0.000037   0.000121   0.000006
    15  O    0.000134  -0.000355  -0.017318  -0.000099  -0.000344   0.000073
    16  H    0.000033  -0.000218  -0.003015  -0.000018   0.000417  -0.000053
    17  H   -0.000002  -0.000024   0.009726  -0.000045  -0.000078   0.000017
    18  O    0.329821   0.311420   0.017514  -0.059272  -0.007642   0.002303
    19  H    0.700747  -0.132735  -0.002746   0.000009  -0.002437   0.000110
    20  H   -0.132735   0.600804   0.002610   0.031937   0.001832  -0.001503
    21  H   -0.002746   0.002610   0.994780   0.002722  -0.000321  -0.000116
    22  O    0.000009   0.031937   0.002722   7.826788   0.245036   0.349291
    23  H   -0.002437   0.001832  -0.000321   0.245036   0.609426  -0.118596
    24  H    0.000110  -0.001503  -0.000116   0.349291  -0.118596   0.653522
    25  O   -0.000001  -0.000108  -0.004037  -0.000058  -0.000312  -0.000002
    26  H    0.000014  -0.000004   0.000597   0.000004   0.000035  -0.000001
             25         26
     1  P   -0.012513   0.000936
     2  O   -0.000173  -0.000136
     3  O    0.000244   0.000025
     4  N   -0.008131   0.002417
     5  H    0.006601  -0.000651
     6  S    0.006882  -0.002331
     7  C    0.024589  -0.007539
     8  H   -0.019988  -0.000032
     9  H    0.009921  -0.000511
    10  C   -0.033506   0.069610
    11  H    0.018371  -0.000917
    12  C    0.014664  -0.068355
    13  H   -0.066045  -0.028509
    14  H   -0.052569  -0.051666
    15  O    0.000014  -0.000002
    16  H   -0.000001   0.000018
    17  H    0.000028  -0.000004
    18  O    0.000129  -0.000026
    19  H   -0.000001   0.000014
    20  H   -0.000108  -0.000004
    21  H   -0.004037   0.000597
    22  O   -0.000058   0.000004
    23  H   -0.000312   0.000035
    24  H   -0.000002  -0.000001
    25  O    8.253465   0.357073
    26  H    0.357073   0.647069
 Mulliken atomic charges:
              1
     1  P    1.863448
     2  O   -0.993953
     3  O   -0.939167
     4  N   -0.126862
     5  H    0.117311
     6  S   -0.186325
     7  C    1.194237
     8  H   -0.449147
     9  H   -0.468677
    10  C    0.353359
    11  H   -0.580358
    12  C    1.532756
    13  H   -0.449547
    14  H   -0.441059
    15  O   -0.313579
    16  H    0.159913
    17  H    0.110242
    18  O   -0.291164
    19  H    0.081803
    20  H    0.197393
    21  H    0.069287
    22  O   -0.352825
    23  H    0.193980
    24  H    0.130586
    25  O   -0.494538
    26  H    0.082886
 Sum of Mulliken charges=   0.00000
 Atomic charges with hydrogens summed into heavy atoms:
              1
     1  P    1.863448
     2  O   -0.993953
     3  O   -0.939167
     4  N    0.059737
     5  H    0.000000
     6  S   -0.186325
     7  C    0.276413
     8  H    0.000000
     9  H    0.000000
    10  C   -0.227000
    11  H    0.000000
    12  C    0.642150
    13  H    0.000000
    14  H    0.000000
    15  O   -0.043424
    16  H    0.000000
    17  H    0.000000
    18  O   -0.011968
    19  H    0.000000
    20  H    0.000000
    21  H    0.000000
    22  O   -0.028259
    23  H    0.000000
    24  H    0.000000
    25  O   -0.411651
    26  H    0.000000
 Sum of Mulliken charges=   0.00000
 Electronic spatial extent (au):  <R**2>=  3431.8629
 Charge=     0.0000 electrons
 Dipole moment (field-independent basis, Debye):
    X=     4.3687    Y=     0.9231    Z=     3.2815  Tot=     5.5413
 Quadrupole moment (field-independent basis, Debye-Ang):
   XX=   -74.7861   YY=   -88.6349   ZZ=   -92.2369
   XY=    -2.7492   XZ=     0.4856   YZ=    -1.4555
 Traceless Quadrupole moment (field-independent basis, Debye-Ang):
   XX=    10.4332   YY=    -3.4156   ZZ=    -7.0176
   XY=    -2.7492   XZ=     0.4856   YZ=    -1.4555
 Octapole moment (field-independent basis, Debye-Ang**2):
  XXX=    35.6980  YYY=    -1.9206  ZZZ=    17.7903  XYY=    -5.7850
  XXY=    29.7693  XXZ=   -16.5458  XZZ=     3.2038  YZZ=    -4.1386
  YYZ=    40.6090  XYZ=    -8.5870
 Hexadecapole moment (field-independent basis, Debye-Ang**3):
 XXXX= -1565.1332 YYYY= -1043.2230 ZZZZ=  -798.7852 XXXY=    26.4295
 XXXZ=    77.8903 YYYX=    -6.1637 YYYZ=   -29.8825 ZZZX=    24.8873
 ZZZY=   -18.4447 XXYY=  -604.4720 XXZZ=  -535.6838 YYZZ=  -266.7502
 XXYZ=   -18.3407 YYXZ=   -49.4389 ZZXY=    -8.4697
 N-N= 1.082987508370D+03 E-N=-5.401909237152D+03  KE= 1.362645095274D+03
 No NMR shielding tensors so no spin-rotation constants.
 Leave Link  601 at Sun Aug  3 13:22:00 2008, MaxMem=  536870912 cpu:      11.1
 (Enter /usr/local/Chem-Apps/g03_d01/g03/l701.exe)
 Compute integral first derivatives.
 ... and contract with generalized density number  0.
 Leave Link  701 at Sun Aug  3 13:22:01 2008, MaxMem=  536870912 cpu:       8.2
 (Enter /usr/local/Chem-Apps/g03_d01/g03/l702.exe)
 L702 exits ... SP integral derivatives will be done elsewhere.
 Leave Link  702 at Sun Aug  3 13:22:01 2008, MaxMem=  536870912 cpu:       0.0
 (Enter /usr/local/Chem-Apps/g03_d01/g03/l703.exe)
 Compute integral first derivatives, UseDBF=F.
 Integral derivatives from FoFDir, PRISM(SPDF).
 Symmetry not used in FoFDir.
 MinBra= 0 MaxBra= 2 Meth= 1.
 IRaf=       0 NMat=   1 IRICut=       1 DoRegI=T DoRafI=F ISym2E= 0 JSym2E=0.
 Leave Link  703 at Sun Aug  3 13:23:20 2008, MaxMem=  536870912 cpu:     728.8
 (Enter /usr/local/Chem-Apps/g03_d01/g03/l716.exe)
 Dipole        = 1.71877733D+00 3.63170779D-01 1.29104487D+00
 ***** Axes restored to original set *****
 -------------------------------------------------------------------
 Center     Atomic                   Forces (Hartrees/Bohr)
 Number     Number              X              Y              Z
 -------------------------------------------------------------------
    1         15           0.001965845   -0.000521929   -0.000005529
    2          8          -0.000611146    0.000574058   -0.000193036
    3          8          -0.000477774   -0.000113690    0.000105474
    4          7          -0.000599167    0.000469497    0.000302641
    5          1           0.000034946   -0.000441840   -0.000059118
    6         16           0.001159462    0.001670790    0.000658665
    7          6           0.002808793    0.000214468    0.000060262
    8          1           0.000512036    0.000123356   -0.000015069
    9          1          -0.000039999   -0.000040683   -0.000047901
   10          6          -0.001775525    0.000030085    0.000101076
   11          1           0.001267064    0.000455133   -0.000034433
   12          6           0.021551690   -0.004010362   -0.002235625
   13          1          -0.008980742   -0.008573408   -0.000726193
   14          1          -0.009997037   -0.008367222   -0.006045578
   15          8          -0.000177599   -0.000125551    0.000314720
   16          1           0.000046194    0.000071764   -0.000219513
   17          1           0.000021739    0.000015494   -0.000069996
   18          8          -0.000096717    0.000309064    0.000088947
   19          1          -0.000012401   -0.000033080   -0.000043969
   20          1           0.000064304   -0.000067346    0.000013553
   21          1           0.000172750    0.000213054   -0.000263508
   22          8          -0.000142470    0.000286728   -0.000019782
   23          1           0.000176028   -0.000380411    0.000003108
   24          1           0.000035231   -0.000047011    0.000020351
   25          8          -0.008285081    0.020818496    0.009445736
   26          1           0.001379576   -0.002529456   -0.001135284
 -------------------------------------------------------------------
 Cartesian Forces:  Max     0.021551690 RMS     0.004344367
 Leave Link  716 at Sun Aug  3 13:23:20 2008, MaxMem=  536870912 cpu:       0.0
 (Enter /usr/local/Chem-Apps/g03_d01/g03/l103.exe)

 GradGradGradGradGradGradGradGradGradGradGradGradGradGradGradGradGradGrad
 Berny optimization.
 Internal  Forces:  Max     0.025956180 RMS     0.003282114
 Search for a local minimum.
 Step number   1 out of a maximum of 156
 All quantities printed in internal units (Hartrees-Bohrs-Radians)
 Swaping is turned off.
 Second derivative matrix not updated -- first step.
     Eigenvalues ---    0.00387   0.00536   0.00581   0.00662   0.00719
     Eigenvalues ---    0.00877   0.00963   0.01295   0.01540   0.02542
     Eigenvalues ---    0.03211   0.03559   0.04106   0.04379   0.04726
     Eigenvalues ---    0.04936   0.05015   0.05275   0.05488   0.05618
     Eigenvalues ---    0.05900   0.06058   0.06327   0.06886   0.07383
     Eigenvalues ---    0.07655   0.07849   0.07939   0.07982   0.09195
     Eigenvalues ---    0.09235   0.10044   0.10426   0.10928   0.11462
     Eigenvalues ---    0.11947   0.12783   0.13452   0.13954   0.15090
     Eigenvalues ---    0.15419   0.16000   0.17682   0.18880   0.18979
     Eigenvalues ---    0.19272   0.20572   0.20620   0.21486   0.21707
     Eigenvalues ---    0.22096   0.22854   0.27636   0.30616   0.31982
     Eigenvalues ---    0.34076   0.34104   0.34152   0.34284   0.34512
     Eigenvalues ---    0.39633   0.40430   0.40989   0.47957   0.48745
     Eigenvalues ---    0.49086   0.54674   0.54794   0.54811   0.55473
     Eigenvalues ---    0.68524   0.689451000.000001000.000001000.00000
     Eigenvalues --- 1000.000001000.000001000.000001000.000001000.00000
     Eigenvalues --- 1000.000001000.000001000.000001000.000001000.00000
     Eigenvalues --- 1000.000001000.000001000.000001000.000001000.00000
     Eigenvalues --- 1000.000001000.000001000.000001000.000001000.00000
     Eigenvalues --- 1000.000001000.000001000.000001000.000001000.00000
     Eigenvalues --- 1000.000001000.000001000.000001000.000001000.00000
     Eigenvalues --- 1000.000001000.000001000.000001000.000001000.00000
     Eigenvalues --- 1000.000001000.000001000.000001000.000001000.00000
     Eigenvalues --- 1000.000001000.000001000.000001000.000001000.00000
     Eigenvalues --- 1000.000001000.000001000.000001000.000001000.00000
     Eigenvalues --- 1000.000001000.000001000.000001000.000001000.00000
     Eigenvalues --- 1000.000001000.000001000.000001000.000001000.00000
     Eigenvalues --- 1000.000001000.000001000.000001000.000001000.00000
     Eigenvalues --- 1000.000001000.000001000.000001000.000001000.00000
     Eigenvalues --- 1000.000001000.000001000.000001000.00000
 Quadratic step=3.149D-01 exceeds max=3.000D-01 adjusted using Lamda=-8.930D-04.
 Angle between NR and scaled steps=   3.60 degrees.
 Angle between quadratic step and forces=  39.09 degrees.
 Linear search not attempted -- option 19 set.
 Iteration  1 RMS(Cart)=  0.05235920 RMS(Int)=  0.00264337
 Iteration  2 RMS(Cart)=  0.00315926 RMS(Int)=  0.00121574
 Iteration  3 RMS(Cart)=  0.00000766 RMS(Int)=  0.00121573
 Iteration  4 RMS(Cart)=  0.00000001 RMS(Int)=  0.00121573
 Variable       Old X    -DE/DX   Delta X   Delta X   Delta X     New X
                                 (Linear)    (Quad)   (Total)
    R1        2.87108   0.00043   0.00000   0.00068   0.00068   2.87176
    R2        2.86780   0.00039   0.00000   0.00060   0.00060   2.86840
    R3        3.61601   0.00009   0.00000   0.00148   0.00148   3.61748
    R4        4.06360  -0.00062   0.00000  -0.00111  -0.00110   4.06250
    R5        3.27230  -0.00021   0.00000  -0.00231  -0.00231   3.27000
    R6        3.43849  -0.00003   0.00000  -0.00105  -0.00105   3.43744
    R7        1.97758  -0.00018   0.00000  -0.00055  -0.00055   1.97703
    R8        2.82115   0.00033   0.00000   0.00047   0.00046   2.82161
    R9        1.95940  -0.00022   0.00000  -0.00053  -0.00053   1.95886
   R10        3.29395   0.00027   0.00000   0.00324   0.00324   3.29719
   R11        3.53261  -0.00238   0.00000  -0.01270  -0.01271   3.51990
   R12        2.07155   0.00034   0.00000   0.00099   0.00099   2.07254
   R13        2.07073  -0.00001   0.00000  -0.00002  -0.00002   2.07072
   R14        2.90172  -0.00107   0.00000  -0.00411  -0.00411   2.89761
   R15        2.07203   0.00030   0.00000   0.00087   0.00087   2.07289
   R16        2.86751  -0.00300   0.00000  -0.00976  -0.00976   2.85775
   R17        2.06853   0.00528   0.00000   0.01537   0.01537   2.08390
   R18        2.06475   0.00509   0.00000   0.01472   0.01472   2.07947
   R19        2.70231   0.00971   0.00000   0.02363   0.02363   2.72593
   R20        1.85977   0.00018   0.00000   0.00025   0.00026   1.86002
   R21        1.82016  -0.00005   0.00000  -0.00008  -0.00008   1.82007
   R22        3.47742   0.00019   0.00000   0.00281   0.00281   3.48023
   R23        1.82001  -0.00004   0.00000  -0.00007  -0.00007   1.81994
   R24        1.87478  -0.00003   0.00000  -0.00011  -0.00012   1.87467
   R25        3.22576   0.00002   0.00000   0.00007   0.00007   3.22583
   R26        1.86595   0.00020   0.00000   0.00048   0.00048   1.86643
   R27        1.82123  -0.00004   0.00000  -0.00007  -0.00007   1.82116
   R28        1.81414   0.00240   0.00000   0.00432   0.00432   1.81846
    A1        2.19121  -0.00030   0.00000  -0.00367  -0.00367   2.18754
    A2        1.81362   0.00010   0.00000   0.00038   0.00036   1.81398
    A3        1.92923   0.00020   0.00000   0.00182   0.00180   1.93103
    A4        1.85334  -0.00008   0.00000  -0.00058  -0.00057   1.85277
    A5        1.96163   0.00003   0.00000  -0.00003  -0.00002   1.96162
    A6        1.61058   0.00018   0.00000   0.00446   0.00446   1.61504
    A7        2.30668  -0.00005   0.00000   0.00041   0.00042   2.30710
    A8        1.97385  -0.00011   0.00000   0.00062   0.00062   1.97447
    A9        1.89371  -0.00009   0.00000   0.00070   0.00070   1.89441
   A10        1.97042  -0.00033   0.00000  -0.00292  -0.00292   1.96749
   A11        1.84186   0.00023   0.00000  -0.00003  -0.00002   1.84184
   A12        1.92736   0.00022   0.00000   0.00228   0.00229   1.92965
   A13        1.89417  -0.00009   0.00000   0.00057   0.00057   1.89474
   A14        1.93296   0.00006   0.00000  -0.00059  -0.00060   1.93237
   A15        1.56614  -0.00058   0.00000  -0.00448  -0.00451   1.56162
   A16        1.89833   0.00023   0.00000   0.00483   0.00483   1.90316
   A17        1.88865   0.00054   0.00000  -0.00006  -0.00007   1.88858
   A18        1.93441  -0.00090   0.00000  -0.00438  -0.00439   1.93002
   A19        1.90155  -0.00014   0.00000   0.00055   0.00055   1.90210
   A20        1.93134   0.00028   0.00000  -0.00068  -0.00066   1.93068
   A21        1.90877   0.00001   0.00000  -0.00015  -0.00017   1.90860
   A22        1.85892   0.00133   0.00000   0.01128   0.01135   1.87027
   A23        1.87542  -0.00011   0.00000   0.01060   0.01063   1.88605
   A24        1.88432   0.00122   0.00000   0.01361   0.01376   1.89808
   A25        1.93043   0.00074   0.00000  -0.00188  -0.00219   1.92824
   A26        1.98419  -0.00313   0.00000  -0.02018  -0.02034   1.96385
   A27        1.92561   0.00015   0.00000  -0.01033  -0.01057   1.91504
   A28        1.96081  -0.00188   0.00000  -0.05212  -0.05171   1.90910
   A29        1.94314  -0.00275   0.00000  -0.04238  -0.04058   1.90257
   A30        1.96660  -0.02596   0.00000  -0.10533  -0.10402   1.86257
   A31        1.92013  -0.00108   0.00000  -0.01907  -0.02756   1.89257
   A32        1.84405   0.01570   0.00000   0.09812   0.09315   1.93720
   A33        1.82181   0.01814   0.00000   0.14013   0.13732   1.95913
   A34        1.85914  -0.00002   0.00000  -0.00048  -0.00048   1.85866
   A35        1.51654  -0.00002   0.00000  -0.00064  -0.00064   1.51590
   A36        2.36586  -0.00003   0.00000  -0.00054  -0.00054   2.36532
   A37        2.63934   0.00013   0.00000   0.00061   0.00061   2.63995
   A38        2.25808   0.00000   0.00000  -0.00007  -0.00007   2.25801
   A39        1.84025   0.00001   0.00000  -0.00064  -0.00064   1.83960
   A40        1.85494  -0.00003   0.00000   0.00007   0.00007   1.85501
   A41        2.88958   0.00008   0.00000   0.00008   0.00007   2.88965
   A42        2.72097  -0.00017   0.00000  -0.00014  -0.00015   2.72082
   A43        1.69206  -0.00006   0.00000  -0.00010  -0.00010   1.69195
   A44        2.11810  -0.00003   0.00000  -0.00032  -0.00032   2.11778
   A45        1.84751   0.00001   0.00000  -0.00043  -0.00043   1.84708
   A46        2.88116   0.00004   0.00000   0.00069   0.00070   2.88185
[...]
 Alpha  occ. eigenvalues --   -0.43883  -0.42926  -0.42203  -0.41308  -0.40375
 Alpha  occ. eigenvalues --   -0.39605  -0.38495  -0.37940  -0.35738  -0.34911
 Alpha  occ. eigenvalues --   -0.33706  -0.32546  -0.32230  -0.32122  -0.31904
 Alpha  occ. eigenvalues --   -0.31217  -0.30661  -0.28838  -0.25949
 Alpha virt. eigenvalues --   -0.02144  -0.01599   0.00320   0.00853   0.01261
 Alpha virt. eigenvalues --    0.02506   0.03165   0.03614   0.03897   0.04042
 Alpha virt. eigenvalues --    0.05315   0.06193   0.06300   0.06921   0.07898
 Alpha virt. eigenvalues --    0.08145   0.08618   0.09447   0.09525   0.10255
 Alpha virt. eigenvalues --    0.10783   0.11064   0.11811   0.12531   0.12821
 Alpha virt. eigenvalues --    0.13949   0.14256   0.14573   0.15372   0.15539
 Alpha virt. eigenvalues --    0.15692   0.16532   0.17364   0.17574   0.17857
 Alpha virt. eigenvalues --    0.18037   0.18401   0.19126   0.19421   0.19613
 Alpha virt. eigenvalues --    0.19836   0.20515   0.20692   0.20903   0.21673
 Alpha virt. eigenvalues --    0.21942   0.22442   0.23359   0.23630   0.24078
 Alpha virt. eigenvalues --    0.24805   0.25055   0.25976   0.26332   0.26704
 Alpha virt. eigenvalues --    0.27719   0.27874   0.28157   0.29118   0.30030
 Alpha virt. eigenvalues --    0.30487   0.31082   0.32143   0.32519   0.33051
 Alpha virt. eigenvalues --    0.33607   0.34348   0.35534   0.36006   0.36556
 Alpha virt. eigenvalues --    0.37208   0.37843   0.38383   0.39593   0.40119
 Alpha virt. eigenvalues --    0.41442   0.41928   0.42600   0.44011   0.44438
 Alpha virt. eigenvalues --    0.44840   0.45458   0.45980   0.47774   0.48660
 Alpha virt. eigenvalues --    0.49760   0.50940   0.51226   0.52533   0.53006
 Alpha virt. eigenvalues --    0.55603   0.56444   0.56755   0.57435   0.59315
 Alpha virt. eigenvalues --    0.60125   0.61205   0.61940   0.63754   0.64572
 Alpha virt. eigenvalues --    0.65864   0.67236   0.67572   0.68683   0.69441
 Alpha virt. eigenvalues --    0.70662   0.71270   0.72358   0.72757   0.73746
 Alpha virt. eigenvalues --    0.74093   0.74380   0.75815   0.76443   0.78299
 Alpha virt. eigenvalues --    0.79117   0.79747   0.80178   0.81178   0.81833
 Alpha virt. eigenvalues --    0.82569   0.82787   0.83868   0.84345   0.85836
 Alpha virt. eigenvalues --    0.86210   0.86792   0.87125   0.88093   0.88740
 Alpha virt. eigenvalues --    0.89862   0.90229   0.90816   0.92130   0.92722
 Alpha virt. eigenvalues --    0.93138   0.93675   0.94307   0.95342   0.96167
 Alpha virt. eigenvalues --    0.97077   0.97682   0.98323   0.99168   1.00504
 Alpha virt. eigenvalues --    1.00807   1.03076   1.03252   1.04146   1.04426
 Alpha virt. eigenvalues --    1.05585   1.05890   1.07736   1.08537   1.08671
 Alpha virt. eigenvalues --    1.10009   1.11338   1.11821   1.12328   1.13398
 Alpha virt. eigenvalues --    1.14243   1.14987   1.17182   1.17522   1.18189
 Alpha virt. eigenvalues --    1.19009   1.20663   1.21287   1.21654   1.22625
 Alpha virt. eigenvalues --    1.23640   1.25027   1.25127   1.26589   1.27215
 Alpha virt. eigenvalues --    1.28445   1.28928   1.32030   1.32619   1.33180
 Alpha virt. eigenvalues --    1.35324   1.36962   1.37906   1.39409   1.40177
 Alpha virt. eigenvalues --    1.41054   1.44879   1.45375   1.46788   1.47593
 Alpha virt. eigenvalues --    1.48418   1.48935   1.51082   1.52801   1.54388
 Alpha virt. eigenvalues --    1.55451   1.57648   1.58686   1.59911   1.61943
 Alpha virt. eigenvalues --    1.64450   1.65186   1.67374   1.68325   1.68700
 Alpha virt. eigenvalues --    1.69858   1.70382   1.71377   1.71982   1.72667
 Alpha virt. eigenvalues --    1.74088   1.75448   1.75847   1.77286   1.77702
 Alpha virt. eigenvalues --    1.79020   1.81159   1.82030   1.82324   1.84262
 Alpha virt. eigenvalues --    1.85489   1.86306   1.87991   1.90086   1.91306
 Alpha virt. eigenvalues --    1.92094   1.93559   1.94342   1.95920   1.98672
 Alpha virt. eigenvalues --    1.99161   2.00409   2.01908   2.03910   2.04973
 Alpha virt. eigenvalues --    2.06285   2.08120   2.09175   2.11625   2.12580
 Alpha virt. eigenvalues --    2.13198   2.14649   2.15555   2.16791   2.18583
 Alpha virt. eigenvalues --    2.21185   2.21684   2.23905   2.25781   2.27869
 Alpha virt. eigenvalues --    2.28713   2.29442   2.30625   2.32887   2.34023
 Alpha virt. eigenvalues --    2.37696   2.38451   2.40367   2.42926   2.43647
 Alpha virt. eigenvalues --    2.44757   2.45982   2.47064   2.48385   2.49112
 Alpha virt. eigenvalues --    2.51613   2.53951   2.55224   2.58091   2.59958
 Alpha virt. eigenvalues --    2.61555   2.62307   2.64539   2.66748   2.67813
 Alpha virt. eigenvalues --    2.69565   2.73071   2.73839   2.77110   2.78444
 Alpha virt. eigenvalues --    2.83390   2.99872   3.02924   3.13910   3.15576
 Alpha virt. eigenvalues --    3.17476   3.19335   3.20022   3.22662   3.25418
 Alpha virt. eigenvalues --    3.30004   3.31906   3.32941   3.33819   3.34104
 Alpha virt. eigenvalues --    3.34350   3.36872   3.38166   3.39217   3.41814
 Alpha virt. eigenvalues --    3.42509   3.46014   3.46923   3.48447   3.50627
 Alpha virt. eigenvalues --    3.54587   3.54743   3.56503   3.59015   3.61367
 Alpha virt. eigenvalues --    3.65673   3.68367   3.77207   3.80305   3.81105
 Alpha virt. eigenvalues --    3.84737   3.90166   3.90970   4.91249   4.96265
 Alpha virt. eigenvalues --    5.06826   5.28170   5.34250   5.37741   5.41093
 Alpha virt. eigenvalues --    5.43812   5.46105   5.50787   5.52498   5.53357
 Alpha virt. eigenvalues --    5.56554   5.57803   5.61467   5.66242   5.66289
 Alpha virt. eigenvalues --    5.75677   5.82948   6.78117   6.80782   6.83284
 Alpha virt. eigenvalues --    6.88137   6.91968   6.93630   6.98131   8.77608
 Alpha virt. eigenvalues --    8.98487   9.00308  10.09064  20.72913  20.75673
 Alpha virt. eigenvalues --   20.82835  20.96587  20.98433  35.07505  35.25771
 Alpha virt. eigenvalues --   35.27817  36.85916  36.90276  36.96662  36.99108
 Alpha virt. eigenvalues --   37.01194  37.02347  37.03383  37.05077  37.05692
 Alpha virt. eigenvalues --   37.07401  37.09953  37.14475  37.19002  37.32007
 Alpha virt. eigenvalues --   59.05586
          Condensed to atoms (all electrons):
              1          2          3          4          5          6
     1  P   13.165311   0.143810   0.032201   0.152542  -0.016577   0.273135
     2  O    0.143810   8.841780  -0.056675   0.005476  -0.000106   0.005833
     3  O    0.032201  -0.056675   8.981517  -0.019434   0.000183  -0.020704
     4  N    0.152542   0.005476  -0.019434   6.712398   0.363952   0.009699
     5  H   -0.016577  -0.000106   0.000183   0.363952   0.299685   0.001209
     6  S    0.273135   0.005833  -0.020704   0.009699   0.001209  15.829252
     7  C   -0.105261   0.039257   0.003330   0.211595  -0.027326  -0.056123
     8  H    0.003959  -0.000654  -0.000095  -0.033338  -0.007079   0.003894
     9  H    0.000919  -0.000704   0.000105  -0.022930   0.001826   0.011806
    10  C   -0.039844  -0.024483   0.033581  -0.069622   0.006871   0.138932
    11  H   -0.016002  -0.000143   0.000522  -0.003566   0.000356  -0.014445
    12  C    0.012572  -0.018829   0.004505  -0.014144   0.000499  -0.158564
    13  H   -0.000430   0.000069   0.000040  -0.000664   0.000000  -0.008110
    14  H    0.000289   0.000132   0.000009   0.000085   0.000001  -0.000071
    15  O    0.006707  -0.001270  -0.049424  -0.053945   0.001303  -0.002437
    16  H    0.006948   0.000178   0.014892   0.000757   0.000058  -0.001742
    17  H    0.001182  -0.000006   0.004457   0.005969  -0.000003  -0.000351
    18  O    0.009689  -0.001582   0.000032  -0.083064   0.012193  -0.002918
    19  H    0.000304  -0.000377  -0.000042   0.005930  -0.001218   0.000008
    20  H    0.002302  -0.001303  -0.000030   0.004288  -0.001696  -0.000015
    21  H   -0.017531   0.000364  -0.006199   0.380334  -0.005546   0.000458
    22  O   -0.009884  -0.044203  -0.000721   0.001947   0.000622  -0.000510
    23  H    0.008186   0.019812  -0.000954  -0.002657   0.000132  -0.000850
    24  H    0.003595   0.006445  -0.000251  -0.001208   0.000001  -0.000059
    25  O   -0.003828   0.000689  -0.000104   0.001361  -0.000029   0.008502
    26  H    0.000562  -0.000011  -0.000001   0.000480   0.000000   0.000869
              7          8          9         10         11         12
     1  P   -0.105261   0.003959   0.000919  -0.039844  -0.016002   0.012572
     2  O    0.039257  -0.000654  -0.000704  -0.024483  -0.000143  -0.018829
     3  O    0.003330  -0.000095   0.000105   0.033581   0.000522   0.004505
     4  N    0.211595  -0.033338  -0.022930  -0.069622  -0.003566  -0.014144
     5  H   -0.027326  -0.007079   0.001826   0.006871   0.000356   0.000499
     6  S   -0.056123   0.003894   0.011806   0.138932  -0.014445  -0.158564
     7  C    5.085107   0.394982   0.385833   0.306544  -0.009937  -0.080464
     8  H    0.394982   0.438997  -0.008876  -0.024480  -0.001208  -0.001089
     9  H    0.385833  -0.008876   0.437507  -0.024448   0.001664  -0.007404
    10  C    0.306544  -0.024480  -0.024448   5.474660   0.427752   0.233253
    11  H   -0.009937  -0.001208   0.001664   0.427752   0.437745  -0.019325
    12  C   -0.080464  -0.001089  -0.007404   0.233253  -0.019325   5.093568
    13  H    0.010413   0.000144   0.002191  -0.008266   0.001704   0.371750
    14  H   -0.002310  -0.000102   0.000006   0.020474  -0.003150   0.358074
    15  O   -0.011019  -0.000464   0.003150  -0.005654  -0.000006  -0.000384
    16  H    0.001200   0.000001  -0.000009   0.000964   0.000000  -0.000018
    17  H    0.001053   0.000002  -0.000073   0.000034   0.000000   0.000024
    18  O   -0.000550   0.004123  -0.000995  -0.010028   0.000559   0.000552
    19  H    0.003562  -0.000126   0.000002  -0.001038   0.000001   0.000045
    20  H    0.001019  -0.000019   0.000001  -0.000434  -0.000005  -0.000012
    21  H   -0.037492   0.002035  -0.007915   0.007808  -0.000042  -0.000561
    22  O   -0.002014   0.000012   0.000007   0.001464   0.000016  -0.000077
    23  H   -0.000809   0.000000   0.000000   0.001191  -0.000010   0.000093
    24  H   -0.000045   0.000000   0.000000  -0.000046   0.000000  -0.000001
    25  O   -0.006804  -0.003216   0.001388   0.014351  -0.002093   0.030029
    26  H   -0.001330   0.000085  -0.000053   0.005493   0.000041  -0.026661
             13         14         15         16         17         18
     1  P   -0.000430   0.000289   0.006707   0.006948   0.001182   0.009689
     2  O    0.000069   0.000132  -0.001270   0.000178  -0.000006  -0.001582
     3  O    0.000040   0.000009  -0.049424   0.014892   0.004457   0.000032
     4  N   -0.000664   0.000085  -0.053945   0.000757   0.005969  -0.083064
     5  H    0.000000   0.000001   0.001303   0.000058  -0.000003   0.012193
     6  S   -0.008110  -0.000071  -0.002437  -0.001742  -0.000351  -0.002918
     7  C    0.010413  -0.002310  -0.011019   0.001200   0.001053  -0.000550
     8  H    0.000144  -0.000102  -0.000464   0.000001   0.000002   0.004123
     9  H    0.002191   0.000006   0.003150  -0.000009  -0.000073  -0.000995
    10  C   -0.008266   0.020474  -0.005654   0.000964   0.000034  -0.010028
    11  H    0.001704  -0.003150  -0.000006   0.000000   0.000000   0.000559
    12  C    0.371750   0.358074  -0.000384  -0.000018   0.000024   0.000552
    13  H    0.486191  -0.015797   0.000010   0.000000   0.000000   0.000008
    14  H   -0.015797   0.489501  -0.000001   0.000000   0.000000  -0.000001
    15  O    0.000010  -0.000001   8.116981   0.300558   0.313679   0.001632
    16  H    0.000000   0.000000   0.300558   0.355329  -0.014095  -0.000140
    17  H    0.000000   0.000000   0.313679  -0.014095   0.386628  -0.000008
    18  O    0.000008  -0.000001   0.001632  -0.000140  -0.000008   8.178908
    19  H    0.000000   0.000000  -0.000010   0.000000   0.000000   0.317366
    20  H    0.000000   0.000000  -0.000030   0.000000   0.000000   0.302663
    21  H    0.000001   0.000001   0.020822  -0.004765  -0.000747   0.002502
    22  O    0.000000   0.000000   0.000289  -0.000017  -0.000002  -0.070293
    23  H    0.000000   0.000000  -0.000013   0.000001   0.000000   0.003256
    24  H    0.000000   0.000000   0.000000   0.000000   0.000000   0.003934
    25  O   -0.031207  -0.039925  -0.000069   0.000000   0.000000   0.000700
    26  H   -0.003550  -0.005536   0.000000   0.000000   0.000000   0.000001
             19         20         21         22         23         24
     1  P    0.000304   0.002302  -0.017531  -0.009884   0.008186   0.003595
     2  O   -0.000377  -0.001303   0.000364  -0.044203   0.019812   0.006445
     3  O   -0.000042  -0.000030  -0.006199  -0.000721  -0.000954  -0.000251
     4  N    0.005930   0.004288   0.380334   0.001947  -0.002657  -0.001208
     5  H   -0.001218  -0.001696  -0.005546   0.000622   0.000132   0.000001
     6  S    0.000008  -0.000015   0.000458  -0.000510  -0.000850  -0.000059
     7  C    0.003562   0.001019  -0.037492  -0.002014  -0.000809  -0.000045
     8  H   -0.000126  -0.000019   0.002035   0.000012   0.000000   0.000000
     9  H    0.000002   0.000001  -0.007915   0.000007   0.000000   0.000000
    10  C   -0.001038  -0.000434   0.007808   0.001464   0.001191  -0.000046
    11  H    0.000001  -0.000005  -0.000042   0.000016  -0.000010   0.000000
    12  C    0.000045  -0.000012  -0.000561  -0.000077   0.000093  -0.000001
    13  H    0.000000   0.000000   0.000001   0.000000   0.000000   0.000000
    14  H    0.000000   0.000000   0.000001   0.000000   0.000000   0.000000
    15  O   -0.000010  -0.000030   0.020822   0.000289  -0.000013   0.000000
    16  H    0.000000   0.000000  -0.004765  -0.000017   0.000001   0.000000
    17  H    0.000000   0.000000  -0.000747  -0.000002   0.000000   0.000000
    18  O    0.317366   0.302663   0.002502  -0.070293   0.003256   0.003934
    19  H    0.388817  -0.015276  -0.000007   0.004555  -0.000012  -0.000011
    20  H   -0.015276   0.324724  -0.000023   0.023725  -0.002044  -0.000701
    21  H   -0.000007  -0.000023   0.331742   0.000035   0.000002   0.000000
    22  O    0.004555   0.023725   0.000035   8.143458   0.296733   0.314571
    23  H   -0.000012  -0.002044   0.000002   0.296733   0.317751  -0.015741
    24  H   -0.000011  -0.000701   0.000000   0.314571  -0.015741   0.389990
    25  O   -0.000004   0.000001   0.000078  -0.000016   0.000002   0.000000
    26  H    0.000000   0.000000   0.000000   0.000000   0.000000   0.000000
             25         26
     1  P   -0.003828   0.000562
     2  O    0.000689  -0.000011
     3  O   -0.000104  -0.000001
     4  N    0.001361   0.000480
     5  H   -0.000029   0.000000
     6  S    0.008502   0.000869
     7  C   -0.006804  -0.001330
     8  H   -0.003216   0.000085
     9  H    0.001388  -0.000053
    10  C    0.014351   0.005493
    11  H   -0.002093   0.000041
    12  C    0.030029  -0.026661
    13  H   -0.031207  -0.003550
    14  H   -0.039925  -0.005536
    15  O   -0.000069   0.000000
    16  H    0.000000   0.000000
    17  H    0.000000   0.000000
    18  O    0.000700   0.000001
    19  H   -0.000004   0.000000
    20  H    0.000001   0.000000
    21  H    0.000078   0.000000
    22  O   -0.000016   0.000000
    23  H    0.000002   0.000000
    24  H    0.000000   0.000000
    25  O    8.402233   0.328199
    26  H    0.328199   0.405883
 Mulliken atomic charges:
              1
     1  P    1.385144
     2  O   -0.913497
     3  O   -0.920739
     4  N   -0.552240
     5  H    0.370689
     6  S   -0.016697
     7  C   -0.102411
     8  H    0.232510
     9  H    0.227002
    10  C   -0.465029
    11  H    0.199571
    12  C    0.222569
    13  H    0.195504
    14  H    0.198323
    15  O   -0.640406
    16  H    0.339900
    17  H    0.302257
    18  O   -0.668539
    19  H    0.297533
    20  H    0.362863
    21  H    0.334646
    22  O   -0.659700
    23  H    0.375931
    24  H    0.299526
    25  O   -0.700238
    26  H    0.295529
 Sum of Mulliken charges=   0.00000
 Atomic charges with hydrogens summed into heavy atoms:
              1
     1  P    1.385144
     2  O   -0.913497
     3  O   -0.920739
     4  N    0.153095
     5  H    0.000000
     6  S   -0.016697
     7  C    0.357101
     8  H    0.000000
     9  H    0.000000
    10  C   -0.265457
    11  H    0.000000
    12  C    0.616396
    13  H    0.000000
    14  H    0.000000
    15  O    0.001750
    16  H    0.000000
    17  H    0.000000
    18  O   -0.008144
    19  H    0.000000
    20  H    0.000000
    21  H    0.000000
    22  O    0.015758
    23  H    0.000000
    24  H    0.000000
    25  O   -0.404709
    26  H    0.000000
 Sum of Mulliken charges=   0.00000
 Electronic spatial extent (au):  <R**2>=  3394.1745
 Charge=     0.0000 electrons
 Dipole moment (field-independent basis, Debye):
    X=     6.6893    Y=     1.7999    Z=     4.4202  Tot=     8.2173
 Quadrupole moment (field-independent basis, Debye-Ang):
   XX=   -69.7728   YY=   -87.7247   ZZ=   -93.5755
   XY=    -1.2758   XZ=     1.6663   YZ=    -2.1092
 Traceless Quadrupole moment (field-independent basis, Debye-Ang):
   XX=    13.9182   YY=    -4.0337   ZZ=    -9.8845
   XY=    -1.2758   XZ=     1.6663   YZ=    -2.1092
 Octapole moment (field-independent basis, Debye-Ang**2):
  XXX=    58.9234  YYY=     7.8225  ZZZ=    24.0729  XYY=     3.7001
  XXY=    38.1518  XXZ=   -12.1364  XZZ=    11.6629  YZZ=    -8.4109
  YYZ=    48.3226  XYZ=    -8.3576
 Hexadecapole moment (field-independent basis, Debye-Ang**3):
 XXXX= -1412.9828 YYYY= -1017.6628 ZZZZ=  -816.3627 XXXY=    71.9795
 XXXZ=   109.4889 YYYX=    -4.6057 YYYZ=   -33.3856 ZZZX=    31.4231
 ZZZY=   -33.2702 XXYY=  -592.4373 XXZZ=  -536.8691 YYZZ=  -263.3987
 XXYZ=    -0.2710 YYXZ=   -46.5682 ZZXY=     3.6889
 N-N= 1.085444052977D+03 E-N=-5.408162001421D+03  KE= 1.362915884366D+03
 Calculating spin-rotation constants.
 Leave Link  601 at Sun Aug  3 14:48:48 2008, MaxMem= 1073741824 cpu:     155.3
 (Enter /usr/local/Chem-Apps/g03_d01/g03/l9999.exe)
 1\1\ SGI ALTIX 4700 1.6GHZ/9MB-MAGELLAN\SP\RB3LYP\Gen\C3H14N1O6P1S1\IK
 1\03-Aug-2008\0\\#p nmr=giao b3lyp/Gen scf=tight integral=(grid=ultraf
 ine) scrf=(pcm,solvent=water,read) guess=read geom=checkpoint\\Molecul
 e 13, NMR.\\0,1\P,0,-2.391459667,-0.6179920266,-0.6290265783\O,0,-2.47
 84347727,0.5881682633,-1.5498507918\O,0,-3.5775928343,-1.4160291465,-0
 .1172575213\N,0,-1.4881380901,0.0492201879,0.9207726988\H,0,-1.6555137
 806,1.0795297291,0.9833255381\S,0,-0.734655924,-1.873880138,-1.1717122
 253\C,0,-0.0227566868,-0.2430004537,0.906150488\H,0,0.5201811223,0.631
 2596548,1.2815775581\H,0,0.1625019973,-1.0926799473,1.5729229979\C,0,0
 .4409008002,-0.5971058868,-0.5133718811\H,0,0.387543874,0.284999732,-1
 .1634709368\C,0,1.8614029742,-1.1489720827,-0.5313511111\H,0,1.9150653
 816,-2.0726711832,0.0693992643\H,0,2.149784903,-1.3857856291,-1.566690
 9782\O,0,-3.1825702987,-1.4987317663,2.5721968491\H,0,-3.5410129562,-1
 .6783077552,1.6726485873\H,0,-3.1400923894,-2.3489618874,3.0227760092\
 O,0,-1.9847261162,2.7900415742,1.1788298946\H,0,-1.3553606998,3.514896
 6537,1.2574118573\H,0,-2.5767614916,3.0206727584,0.4169952711\H,0,-1.9
 471548947,-0.4080035653,1.729481906\O,0,-3.4774169865,3.0351663297,-1.
 0352667193\H,0,-3.2156727238,2.1335019734,-1.343655181\H,0,-4.44107933
 8,3.0390885007,-1.0233926872\O,0,2.7077029475,-0.1336465777,0.01810657
 86\H,0,3.6270535,-0.4116344114,-0.0634435773\\Version=IA64L-G03RevD.01
 \State=1-A\HF=-1368.7503223\RMSD=3.252e-09\Thermal=0.\Dipole=2.8856639
 ,-0.3273334,1.4204862\PG=C01 [X(C3H14N1O6P1S1)]\\@


 IF YOU GET CONFUSED, LOGIC OUT YOUR DILEMMA

           --  PICKER X-RAY CORP.    DIGITAL PRINTER MANUAL CA. 1964
 Job cpu time:  0 days  0 hours 11 minutes  8.1 seconds.
 File lengths (MBytes):  RWF=    235 Int=      0 D2E=      0 Chk=     23 Scr=      1
 Normal termination of Gaussian 03 at Sun Aug  3 14:48:48 2008.
