 Entering Gaussian System, Link 0=/usr/local/Chem-Apps/g03_d01/g03/g03
 Initial command:
 /usr/local/Chem-Apps/g03_d01/g03/l1.exe /scratch/LSF_69100/Gau-27240.inp -scrdir=/scratch/LSF_69100/
 Entering Link 1 = /usr/local/Chem-Apps/g03_d01/g03/l1.exe PID=     27241.
  
 Copyright (c) 1988,1990,1992,1993,1995,1998,2003,2004, Gaussian, Inc.
                  All Rights Reserved.
  
 This is the Gaussian(R) 03 program.  It is based on the
 the Gaussian(R) 98 system (copyright 1998, Gaussian, Inc.),
 the Gaussian(R) 94 system (copyright 1995, Gaussian, Inc.),
 the Gaussian 92(TM) system (copyright 1992, Gaussian, Inc.),
 the Gaussian 90(TM) system (copyright 1990, Gaussian, Inc.),
 the Gaussian 88(TM) system (copyright 1988, Gaussian, Inc.),
 the Gaussian 86(TM) system (copyright 1986, Carnegie Mellon
 University), and the Gaussian 82(TM) system (copyright 1983,
 Carnegie Mellon University). Gaussian is a federally registered
 trademark of Gaussian, Inc.
  
 This software contains proprietary and confidential information,
 including trade secrets, belonging to Gaussian, Inc.
  
 This software is provided under written license and may be
 used, copied, transmitted, or stored only in accord with that
 written license.
  
 The following legend is applicable only to US Government
 contracts under FAR:
  
                    RESTRICTED RIGHTS LEGEND
  
 Use, reproduction and disclosure by the US Government is
 subject to restrictions as set forth in subparagraphs (a)
 and (c) of the Commercial Computer Software - Restricted
 Rights clause in FAR 52.227-19.
  
 Gaussian, Inc.
 340 Quinnipiac St., Bldg. 40, Wallingford CT 06492
  
  
 ---------------------------------------------------------------
 Warning -- This program may not be used in any manner that
 competes with the business of Gaussian, Inc. or will provide
 assistance to any competitor of Gaussian, Inc.  The licensee
 of this program is prohibited from giving any competitor of
 Gaussian, Inc. access to this program.  By using this program,
 the user acknowledges that Gaussian, Inc. is engaged in the
 business of creating and licensing software in the field of
 computational chemistry and represents and warrants to the
 licensee that it is not a competitor of Gaussian, Inc. and that
 it will not use this program in any manner prohibited above.
 ---------------------------------------------------------------
  

 Cite this work as:
 Gaussian 03, Revision D.01,
 M. J. Frisch, G. W. Trucks, H. B. Schlegel, G. E. Scuseria, 
 M. A. Robb, J. R. Cheeseman, J. A. Montgomery, Jr., T. Vreven, 
 K. N. Kudin, J. C. Burant, J. M. Millam, S. S. Iyengar, J. Tomasi, 
 V. Barone, B. Mennucci, M. Cossi, G. Scalmani, N. Rega, 
 G. A. Petersson, H. Nakatsuji, M. Hada, M. Ehara, K. Toyota, 
 R. Fukuda, J. Hasegawa, M. Ishida, T. Nakajima, Y. Honda, O. Kitao, 
 H. Nakai, M. Klene, X. Li, J. E. Knox, H. P. Hratchian, J. B. Cross, 
 V. Bakken, C. Adamo, J. Jaramillo, R. Gomperts, R. E. Stratmann, 
 O. Yazyev, A. J. Austin, R. Cammi, C. Pomelli, J. W. Ochterski, 
 P. Y. Ayala, K. Morokuma, G. A. Voth, P. Salvador, J. J. Dannenberg, 
 V. G. Zakrzewski, S. Dapprich, A. D. Daniels, M. C. Strain, 
 O. Farkas, D. K. Malick, A. D. Rabuck, K. Raghavachari, 
 J. B. Foresman, J. V. Ortiz, Q. Cui, A. G. Baboul, S. Clifford, 
 J. Cioslowski, B. B. Stefanov, G. Liu, A. Liashenko, P. Piskorz, 
 I. Komaromi, R. L. Martin, D. J. Fox, T. Keith, M. A. Al-Laham, 
 C. Y. Peng, A. Nanayakkara, M. Challacombe, P. M. W. Gill, 
 B. Johnson, W. Chen, M. W. Wong, C. Gonzalez, and J. A. Pople, 
 Gaussian, Inc., Wallingford CT, 2004.
 
 ******************************************
 Gaussian 03:  IA64L-G03RevD.01 13-Oct-2005
                 2-Aug-2008 
 ******************************************
 %Mem=4GB
 %NProcShared=16
 Will use up to   16 processors via shared memory.
 %Chk=molecule_7.chk
 Default route:  MaxDisk=64GB Cachesize=589840
 ----------------------------------------------------------------------
 #p opt=gdiis b3lyp/Gen scf=tight pseudo=read integral=(grid=ultrafine)
 ----------------------------------------------------------------------
 1/4=589840,14=-1,18=20,19=11,26=3,38=1/1,3;
 2/4=589840,9=110,17=6,18=5,40=1/2;
 3/4=589840,5=7,11=2,16=1,17=8,25=1,30=1,74=-5,75=5/1,2,3;
 4/4=589840/1;
 5/4=589840,5=2,32=2,38=5/2;
 6/4=589840,7=2,8=2,9=2,10=2,28=1/1;
 7/4=589840/1,2,3,16;
 1/4=589840,14=-1,18=20,19=11/3(3);
 2/4=589840,9=110/2;
 6/4=589840,7=2,8=2,9=2,10=2,19=2,28=1/1;
 99/4=589840/99;
 2/4=589840,9=110/2;
 3/4=589840,5=7,6=1,11=2,16=1,17=8,25=1,30=1,74=-5,75=5,82=7/1,2,3;
 4/4=589840,5=5,16=3/1;
 5/4=589840,5=2,32=2,38=5/2;
 7/4=589840/1,2,3,16;
 1/4=589840,14=-1,18=20,19=11/3(-5);
 2/4=589840,9=110/2;
 6/4=589840,7=2,8=2,9=2,10=2,19=2,28=1/1;
 99/4=589840,9=1/99;
 Leave Link    1 at Sat Aug  2 14:59:55 2008, MaxMem=  536870912 cpu:       2.4
 (Enter /usr/local/Chem-Apps/g03_d01/g03/l101.exe)
 ---------------------
 Molecule 7, geometry.
 ---------------------
 Symbolic Z-matrix:
 Charge = -1 Multiplicity = 1
 P                     2.41684  -0.01917  -0.20683 
 O                     3.70163   0.79827  -0.01429 
 O                     2.48847  -1.52766  -0.47159 
 N                     1.36811   0.75923  -1.33343 
 H                     1.52529   1.7668   -1.27562 
 S                     1.03725   0.31759   1.52846 
 C                    -0.02083   0.40059  -1.06338 
 H                    -0.5585    0.27882  -2.01193 
 H                    -0.02874  -0.56792  -0.54659 
 C                    -0.72755   1.10547   1.29915 
 H                    -1.21481   1.85757   1.92255 
 O                     5.51276  -1.56359  -0.25002 
 H                     4.6379   -1.96031  -0.39319 
 H                     5.26043  -0.63238  -0.12798 
 O                     2.90009   3.44006  -0.008 
 H                     3.31716   2.54489  -0.00269 
 H                     2.44485   3.46872   0.84188 
 O                     0.39465  -3.21076   0.12362 
 H                     1.14953  -2.62826  -0.13588 
 H                     0.56236  -3.37653   1.05807 
 C                    -0.76191   1.42946  -0.18942 
 H                    -0.27989   2.38111  -0.27254 
 H                    -1.28492   0.22076   1.52614 
 I                    -2.75255   1.59407  -0.83772 
 
                    Isotopes and Nuclear Properties:
 (Nuclear quadrupole moments (NQMom) in fm**2, nuclear magnetic moments (NMagM)
  in nuclear magnetons)

  Atom         1           2           3           4           5           6           7           8           9          10
 IAtWgt=          31          16          16          14           1          32          12           1           1          12
 AtmWgt=  30.9737634  15.9949146  15.9949146  14.0030740   1.0078250  31.9720718  12.0000000   1.0078250   1.0078250  12.0000000
 NucSpn=           1           0           0           2           1           0           0           1           1           0
 AtZEff=   0.0000000   0.0000000   0.0000000   0.0000000   0.0000000   0.0000000   0.0000000   0.0000000   0.0000000   0.0000000
 NQMom=    0.0000000   0.0000000   0.0000000   2.0440000   0.0000000   0.0000000   0.0000000   0.0000000   0.0000000   0.0000000
 NMagM=    1.1316000   0.0000000   0.0000000   0.4037610   2.7928460   0.0000000   0.0000000   2.7928460   2.7928460   0.0000000

  Atom        11          12          13          14          15          16          17          18          19          20
 IAtWgt=           1          16           1           1          16           1           1          16           1           1
 AtmWgt=   1.0078250  15.9949146   1.0078250   1.0078250  15.9949146   1.0078250   1.0078250  15.9949146   1.0078250   1.0078250
 NucSpn=           1           0           1           1           0           1           1           0           1           1
 AtZEff=   0.0000000   0.0000000   0.0000000   0.0000000   0.0000000   0.0000000   0.0000000   0.0000000   0.0000000   0.0000000
 NQMom=    0.0000000   0.0000000   0.0000000   0.0000000   0.0000000   0.0000000   0.0000000   0.0000000   0.0000000   0.0000000
 NMagM=    2.7928460   0.0000000   2.7928460   2.7928460   0.0000000   2.7928460   2.7928460   0.0000000   2.7928460   2.7928460

  Atom        21          22          23          24
 IAtWgt=          12           1           1         127
 AtmWgt=  12.0000000   1.0078250   1.0078250 126.9004000
 NucSpn=           0           1           1           5
 AtZEff=   0.0000000   0.0000000   0.0000000   0.0000000
 NQMom=    0.0000000   0.0000000   0.0000000 -71.0000000
 NMagM=    0.0000000   2.7928460   2.7928460   2.8132800
 Leave Link  101 at Sat Aug  2 14:59:55 2008, MaxMem=  536870912 cpu:       1.2
 (Enter /usr/local/Chem-Apps/g03_d01/g03/l103.exe)

 GradGradGradGradGradGradGradGradGradGradGradGradGradGradGradGradGradGrad
 Berny optimization.
 Initialization pass.
                           ----------------------------
                           !    Initial Parameters    !
                           ! (Angstroms and Degrees)  !
 --------------------------                            --------------------------
 ! Name  Definition              Value          Derivative Info.                !
 --------------------------------------------------------------------------------
 ! R1    R(1,2)                  1.5349         estimate D2E/DX2                !
 ! R2    R(1,3)                  1.5332         estimate D2E/DX2                !
 ! R3    R(1,4)                  1.7248         estimate D2E/DX2                !
 ! R4    R(1,6)                  2.2423         estimate D2E/DX2                !
 ! R5    R(2,14)                 2.1189         estimate D2E/DX2                !
 ! R6    R(2,16)                 1.7885         estimate D2E/DX2                !
 ! R7    R(3,13)                 2.1939         estimate D2E/DX2                !
 ! R8    R(3,19)                 1.7654         estimate D2E/DX2                !
 ! R9    R(4,5)                  1.0214         estimate D2E/DX2                !
 ! R10   R(4,7)                  1.4597         estimate D2E/DX2                !
 ! R11   R(6,10)                 1.9462         estimate D2E/DX2                !
 ! R12   R(7,8)                  1.0971         estimate D2E/DX2                !
 ! R13   R(7,9)                  1.0978         estimate D2E/DX2                !
 ! R14   R(7,21)                 1.54           estimate D2E/DX2                !
 ! R15   R(10,11)                1.0916         estimate D2E/DX2                !
 ! R16   R(10,21)                1.5238         estimate D2E/DX2                !
 ! R17   R(10,23)                1.07           estimate D2E/DX2                !
 ! R18   R(12,13)                0.9712         estimate D2E/DX2                !
 ! R19   R(12,14)                0.9725         estimate D2E/DX2                !
 ! R20   R(15,16)                0.9876         estimate D2E/DX2                !
 ! R21   R(15,17)                0.9645         estimate D2E/DX2                !
 ! R22   R(18,19)                0.9882         estimate D2E/DX2                !
 ! R23   R(18,20)                0.9637         estimate D2E/DX2                !
 ! R24   R(21,22)                1.07           estimate D2E/DX2                !
 ! R25   R(21,24)                2.1            estimate D2E/DX2                !
 ! A1    A(2,1,3)              120.4326         estimate D2E/DX2                !
 ! A2    A(2,1,4)              110.5202         estimate D2E/DX2                !
 ! A3    A(2,1,6)              109.7512         estimate D2E/DX2                !
 ! A4    A(3,1,4)              111.0775         estimate D2E/DX2                !
 ! A5    A(3,1,6)              108.0679         estimate D2E/DX2                !
 ! A6    A(4,1,6)               93.6475         estimate D2E/DX2                !
 ! A7    A(1,2,14)             104.4467         estimate D2E/DX2                !
 ! A8    A(1,2,16)             109.936          estimate D2E/DX2                !
 ! A9    A(14,2,16)            144.875          estimate D2E/DX2                !
 ! A10   A(1,3,13)             103.5106         estimate D2E/DX2                !
 ! A11   A(1,3,19)             123.0302         estimate D2E/DX2                !
 ! A12   A(13,3,19)            127.8283         estimate D2E/DX2                !
 ! A13   A(1,4,5)              108.3397         estimate D2E/DX2                !
 ! A14   A(1,4,7)              110.2936         estimate D2E/DX2                !
 ! A15   A(5,4,7)              112.2304         estimate D2E/DX2                !
 ! A16   A(1,6,10)             121.8378         estimate D2E/DX2                !
 ! A17   A(4,7,8)              109.4902         estimate D2E/DX2                !
 ! A18   A(4,7,9)              108.1023         estimate D2E/DX2                !
 ! A19   A(4,7,21)             113.4994         estimate D2E/DX2                !
 ! A20   A(8,7,9)              107.7917         estimate D2E/DX2                !
 ! A21   A(8,7,21)             109.206          estimate D2E/DX2                !
 ! A22   A(9,7,21)             108.5901         estimate D2E/DX2                !
 ! A23   A(6,10,11)            128.0512         estimate D2E/DX2                !
 ! A24   A(6,10,21)            102.804          estimate D2E/DX2                !
 ! A25   A(6,10,23)             96.467          estimate D2E/DX2                !
 ! A26   A(11,10,21)           113.6594         estimate D2E/DX2                !
 ! A27   A(11,10,23)           102.4744         estimate D2E/DX2                !
 ! A28   A(21,10,23)           111.7948         estimate D2E/DX2                !
 ! A29   A(13,12,14)           100.1317         estimate D2E/DX2                !
 ! A30   A(3,13,12)            143.8259         estimate D2E/DX2                !
 ! A31   A(2,14,12)            147.5828         estimate D2E/DX2                !
 ! A32   A(16,15,17)           102.7986         estimate D2E/DX2                !
 ! A33   A(2,16,15)            167.4143         estimate D2E/DX2                !
 ! A34   A(19,18,20)           102.8901         estimate D2E/DX2                !
 ! A35   A(7,21,10)            113.6708         estimate D2E/DX2                !
 ! A36   A(7,21,22)            109.4712         estimate D2E/DX2                !
 ! A37   A(7,21,24)            109.4712         estimate D2E/DX2                !
 ! A38   A(10,21,22)           104.7634         estimate D2E/DX2                !
 ! A39   A(10,21,24)           109.8536         estimate D2E/DX2                !
 ! A40   A(22,21,24)           109.4712         estimate D2E/DX2                !
 ! A41   L(3,19,18,20,-1)      176.2324         estimate D2E/DX2                !
 ! A42   L(3,19,18,20,-2)      175.8896         estimate D2E/DX2                !
 ! D1    D(3,1,2,14)            -2.2573         estimate D2E/DX2                !
 ! D2    D(3,1,2,16)           170.4395         estimate D2E/DX2                !
 ! D3    D(4,1,2,14)          -133.9574         estimate D2E/DX2                !
 ! D4    D(4,1,2,16)            38.7394         estimate D2E/DX2                !
 ! D5    D(6,1,2,14)           124.1214         estimate D2E/DX2                !
 ! D6    D(6,1,2,16)           -63.1818         estimate D2E/DX2                !
 ! D7    D(2,1,3,13)             1.9935         estimate D2E/DX2                !
 ! D8    D(2,1,3,19)           157.3008         estimate D2E/DX2                !
 ! D9    D(4,1,3,13)           133.4551         estimate D2E/DX2                !
 ! D10   D(4,1,3,19)           -71.2377         estimate D2E/DX2                !
 ! D11   D(6,1,3,13)          -125.1571         estimate D2E/DX2                !
 ! D12   D(6,1,3,19)            30.1502         estimate D2E/DX2                !
 ! D13   D(2,1,4,5)            -29.7822         estimate D2E/DX2                !
 ! D14   D(2,1,4,7)           -152.9801         estimate D2E/DX2                !
 ! D15   D(3,1,4,5)           -166.1577         estimate D2E/DX2                !
 ! D16   D(3,1,4,7)             70.6444         estimate D2E/DX2                !
 ! D17   D(6,1,4,5)             82.8879         estimate D2E/DX2                !
 ! D18   D(6,1,4,7)            -40.3101         estimate D2E/DX2                !
 ! D19   D(2,1,6,10)           118.3702         estimate D2E/DX2                !
 ! D20   D(3,1,6,10)          -108.5326         estimate D2E/DX2                !
 ! D21   D(4,1,6,10)             5.036          estimate D2E/DX2                !
 ! D22   D(1,2,14,12)            0.3615         estimate D2E/DX2                !
 ! D23   D(16,2,14,12)        -167.651          estimate D2E/DX2                !
 ! D24   D(1,2,16,15)            4.454          estimate D2E/DX2                !
 ! D25   D(14,2,16,15)         172.0998         estimate D2E/DX2                !
 ! D26   D(1,3,13,12)            0.8584         estimate D2E/DX2                !
 ! D27   D(19,3,13,12)        -152.8193         estimate D2E/DX2                !
 ! D28   D(1,3,18,20)          -84.0414         estimate D2E/DX2                !
 ! D29   D(13,3,18,20)          62.9592         estimate D2E/DX2                !
 ! D30   D(1,4,7,8)           -142.0163         estimate D2E/DX2                !
 ! D31   D(1,4,7,9)            -24.8416         estimate D2E/DX2                !
 ! D32   D(1,4,7,21)            95.68           estimate D2E/DX2                !
 ! D33   D(5,4,7,8)             97.0833         estimate D2E/DX2                !
 ! D34   D(5,4,7,9)           -145.7419         estimate D2E/DX2                !
 ! D35   D(5,4,7,21)           -25.2204         estimate D2E/DX2                !
 ! D36   D(1,6,10,11)         -137.7103         estimate D2E/DX2                !
 ! D37   D(1,6,10,21)           -3.2436         estimate D2E/DX2                !
 ! D38   D(1,6,10,23)          110.8954         estimate D2E/DX2                !
 ! D39   D(4,7,21,10)          -93.51           estimate D2E/DX2                !
 ! D40   D(4,7,21,22)           23.24           estimate D2E/DX2                !
 ! D41   D(4,7,21,24)          143.24           estimate D2E/DX2                !
 ! D42   D(8,7,21,10)          144.0289         estimate D2E/DX2                !
 ! D43   D(8,7,21,22)          -99.2211         estimate D2E/DX2                !
 ! D44   D(8,7,21,24)           20.7789         estimate D2E/DX2                !
 ! D45   D(9,7,21,10)           26.7357         estimate D2E/DX2                !
 ! D46   D(9,7,21,22)          143.4856         estimate D2E/DX2                !
 ! D47   D(9,7,21,24)          -96.5144         estimate D2E/DX2                !
 ! D48   D(6,10,21,7)           35.2946         estimate D2E/DX2                !
 ! D49   D(6,10,21,22)         -84.1709         estimate D2E/DX2                !
 ! D50   D(6,10,21,24)         158.3354         estimate D2E/DX2                !
 ! D51   D(11,10,21,7)         177.4481         estimate D2E/DX2                !
 ! D52   D(11,10,21,22)         57.9826         estimate D2E/DX2                !
 ! D53   D(11,10,21,24)        -59.5111         estimate D2E/DX2                !
 ! D54   D(23,10,21,7)         -67.1369         estimate D2E/DX2                !
 ! D55   D(23,10,21,22)        173.3976         estimate D2E/DX2                !
 ! D56   D(23,10,21,24)         55.9039         estimate D2E/DX2                !
 ! D57   D(14,12,13,3)          -2.3302         estimate D2E/DX2                !
 ! D58   D(13,12,14,2)           1.7325         estimate D2E/DX2                !
 ! D59   D(17,15,16,2)          67.8819         estimate D2E/DX2                !
 --------------------------------------------------------------------------------
 Trust Radius=3.00D-01 FncErr=1.00D-07 GrdErr=1.00D-06
 Number of steps in this run= 136 maximum allowed number of steps= 144.
 GradGradGradGradGradGradGradGradGradGradGradGradGradGradGradGradGradGrad

 Leave Link  103 at Sat Aug  2 14:59:55 2008, MaxMem=  536870912 cpu:       0.7
 (Enter /usr/local/Chem-Apps/g03_d01/g03/l202.exe)
                          Input orientation:                          
 ---------------------------------------------------------------------
 Center     Atomic     Atomic              Coordinates (Angstroms)
 Number     Number      Type              X           Y           Z
 ---------------------------------------------------------------------
    1         15             0        2.416838   -0.019167   -0.206830
    2          8             0        3.701633    0.798274   -0.014285
    3          8             0        2.488474   -1.527661   -0.471594
    4          7             0        1.368111    0.759229   -1.333432
    5          1             0        1.525293    1.766800   -1.275624
    6         16             0        1.037251    0.317585    1.528459
    7          6             0       -0.020828    0.400586   -1.063382
    8          1             0       -0.558504    0.278822   -2.011926
    9          1             0       -0.028742   -0.567924   -0.546591
   10          6             0       -0.727550    1.105470    1.299154
   11          1             0       -1.214809    1.857572    1.922547
   12          8             0        5.512762   -1.563594   -0.250023
   13          1             0        4.637895   -1.960313   -0.393192
   14          1             0        5.260433   -0.632378   -0.127983
   15          8             0        2.900087    3.440055   -0.008003
   16          1             0        3.317160    2.544890   -0.002693
   17          1             0        2.444852    3.468723    0.841876
   18          8             0        0.394653   -3.210760    0.123617
   19          1             0        1.149527   -2.628257   -0.135883
   20          1             0        0.562360   -3.376526    1.058066
   21          6             0       -0.761914    1.429461   -0.189421
   22          1             0       -0.279890    2.381114   -0.272540
   23          1             0       -1.284922    0.220759    1.526140
   24         53             0       -2.752545    1.594066   -0.837722
 ---------------------------------------------------------------------
                    Distance matrix (angstroms):
                    1          2          3          4          5
     1  P    0.000000
     2  O    1.534921   0.000000
     3  O    1.533227   2.662867   0.000000
     4  N    1.724807   2.680858   2.688465   0.000000
     5  H    2.264255   2.695454   3.525288   1.021395   0.000000
     6  S    2.242296   3.116096   3.084022   2.914608   3.193946
     7  C    2.617650   3.887863   3.219464   1.459693   2.074145
     8  H    3.492825   4.733832   3.862652   2.098331   2.664288
     9  H    2.529315   4.008185   2.695013   2.081262   2.897835
    10  C    3.663328   4.630027   4.517935   3.382630   3.484557
    11  H    4.609258   5.389326   5.559318   4.298748   4.212445
    12  O    3.460038   2.985663   3.032607   4.873132   5.295592
    13  H    2.955651   2.937679   2.193934   4.355622   4.935418
    14  H    2.910030   2.118856   2.933148   4.305792   4.585238
    15  O    3.498468   2.760710   5.006251   3.360140   2.509323
    16  H    2.725186   1.788469   4.182375   2.959433   2.331644
    17  H    3.642245   3.073078   5.166329   3.637677   2.868089
    18  O    3.792716   5.198797   2.751579   4.339519   5.292667
    19  H    2.901458   4.274242   1.765444   3.599578   4.555956
    20  H    4.038677   5.332347   3.077024   4.844891   5.729498
    21  C    3.493321   4.511355   4.403319   2.508980   2.554399
    22  H    3.610818   4.292389   4.793953   2.543994   2.154587
    23  H    4.094359   5.250920   4.613722   3.937726   4.258807
    24  I    5.451887   6.554979   6.111261   4.233496   4.303661
                    6          7          8          9         10
     6  S    0.000000
     7  C    2.800725   0.000000
     8  H    3.883589   1.097113   0.000000
     9  H    2.495256   1.097791   1.773367   0.000000
    10  C    1.946244   2.564740   3.416895   2.587538   0.000000
    11  H    2.756563   3.530463   4.289902   3.658746   1.091649
    12  O    5.170303   5.927915   6.584761   5.638047   6.961705
    13  H    4.673992   5.265615   5.885286   4.872349   6.407110
    14  H    4.634813   5.462024   6.183814   5.306106   6.396309
    15  O    3.947239   4.345566   5.096170   4.993196   4.507627
    16  H    3.536000   4.106734   4.918623   4.602227   4.486247
    17  H    3.518865   4.372991   5.228747   4.933662   3.982236
    18  O    3.851718   3.824057   4.200742   2.759172   4.612056
    19  H    3.385355   3.376962   3.858499   2.408729   4.418536
    20  H    3.754097   4.371181   4.903341   3.288248   4.670147
    21  C    2.724771   1.540000   2.164917   2.157465   1.523813
    22  H    3.039179   2.148263   2.742757   2.972373   2.073136
    23  H    2.324192   2.887195   3.612335   2.548769   1.070000
    24  I    4.646587   2.989582   2.814683   3.489708   2.984220
                   11         12         13         14         15
    11  H    0.000000
    12  O    7.853958   0.000000
    13  H    7.361592   0.971224   0.000000
    14  H    7.234175   0.972485   1.490403   0.000000
    15  O    4.812863   5.649880   5.686152   4.708539   0.000000
    16  H    4.971690   4.664920   4.711017   3.726532   0.987572
    17  H    4.142074   5.994041   5.984084   5.068249   0.964549
    18  O    5.613778   5.389601   4.453741   5.512456   7.108295
    19  H    5.472648   4.492700   3.561049   4.569808   6.317058
    20  H    5.594769   5.431786   4.552120   5.568568   7.284727
    21  C    2.201999   6.952238   6.378874   6.365817   4.181585
    22  H    2.442658   7.008284   6.561033   6.308503   3.362081
    23  H    1.685589   7.248943   6.597020   6.804825   5.498342
    24  I    3.170670   8.867441   8.212784   8.346772   6.004029
                   16         17         18         19         20
    16  H    0.000000
    17  H    1.525675   0.000000
    18  O    6.456354   7.023867   0.000000
    19  H    5.610510   6.309282   0.988172   0.000000
    20  H    6.616442   7.102672   0.963742   1.526495   0.000000
    21  C    4.232954   3.937704   4.792420   4.485705   5.138817
    22  H    3.610873   3.138317   5.646326   5.211113   5.969113
    23  H    5.377553   4.992865   4.069811   4.099482   4.070872
    24  I    6.200215   5.774801   5.823692   5.791957   6.268125
                   21         22         23         24
    21  C    0.000000
    22  H    1.070000   0.000000
    23  H    2.162787   2.985377   0.000000
    24  I    2.100000   2.655730   3.102859   0.000000
 Stoichiometry    C3H12INO5PS(1-)
 Framework group  C1[X(C3H12INO5PS)]
 Deg. of freedom    66
 Full point group                 C1
 Largest Abelian subgroup         C1      NOp   1
 Largest concise Abelian subgroup C1      NOp   1
                         Standard orientation:                         
 ---------------------------------------------------------------------
 Center     Atomic     Atomic              Coordinates (Angstroms)
 Number     Number      Type              X           Y           Z
 ---------------------------------------------------------------------
    1         15             0       -2.228690   -0.096113   -0.219689
    2          8             0       -3.194542   -1.285709   -0.130407
    3          8             0       -2.753638    1.307991   -0.541727
    4          7             0       -0.871099   -0.492347   -1.207063
    5          1             0       -0.700613   -1.496543   -1.131078
    6         16             0       -1.007933    0.031294    1.656853
    7          6             0        0.291055    0.296694   -0.810180
    8          1             0        0.858969    0.586490   -1.703012
    9          1             0       -0.068661    1.215315   -0.328635
   10          6             0        0.930414   -0.142416    1.634466
   11          1             0        1.564382   -0.696456    2.329320
   12          8             0       -5.633722    0.362356   -0.628865
   13          1             0       -4.923244    1.021115   -0.696186
   14          1             0       -5.109481   -0.436996   -0.450161
   15          8             0       -1.590364   -3.525480    0.047250
   16          1             0       -2.271571   -2.813655   -0.020282
   17          1             0       -1.243725   -3.405562    0.939336
   18          8             0       -1.389755    3.578242    0.204577
   19          1             0       -1.884495    2.782768   -0.109969
   20          1             0       -1.700755    3.680311    1.111031
   21          6             0        1.226157   -0.437107    0.168963
   22          1             0        1.088125   -1.493544    0.070026
   23          1             0        1.145509    0.875023    1.886362
   24         53             0        3.220961    0.052206   -0.268448
 ---------------------------------------------------------------------
 Rotational constants (GHZ):      0.7179091      0.1910468      0.1698450
 Leave Link  202 at Sat Aug  2 14:59:56 2008, MaxMem=  536870912 cpu:       0.4
 (Enter /usr/local/Chem-Apps/g03_d01/g03/l301.exe)
 General basis read from cards:  (5D, 7F)
 Centers:   7 10 21  5  8  9 11 13 14 16 17 19 20 22 23  4  2  3 12 15
 Centers:  18  1  6
 aug-cc-pVDZ
 ****
 Centers:  24
 S 1 1.00
     Exponent=  6.8030000000D-01 Coefficients=  1.0000000000D+00
 S 1 1.00
     Exponent=  5.2080000000D-01 Coefficients=  1.0000000000D+00
 S 1 1.00
     Exponent=  1.1430000000D-01 Coefficients=  1.0000000000D+00
 P 1 1.00
     Exponent=  1.1250000000D+00 Coefficients=  1.0000000000D+00
 P 1 1.00
     Exponent=  3.5080000000D-01 Coefficients=  1.0000000000D+00
 P 1 1.00
     Exponent=  1.1660000000D-01 Coefficients=  1.0000000000D+00
 D 1 1.00
     Exponent=  3.9502000000D+00 Coefficients=  1.0000000000D+00
 D 1 1.00
     Exponent=  2.5742000000D+00 Coefficients=  1.0000000000D+00
 D 1 1.00
     Exponent=  1.3071000000D+00 Coefficients=  1.0000000000D+00
 D 1 1.00
     Exponent=  5.1160000000D-01 Coefficients=  1.0000000000D+00
 ****
 ===================================================================================================================================
 Pseudopotential Parameters 
 ===================================================================================================================================
  Center     Atomic      Valence      Angular      Power                                                       Coordinates
  Number     Number     Electrons     Momentum     of R      Exponent        Coefficient                X           Y           Z
 ===================================================================================================================================
    1         15                                                                                   -4.211613 -0.181627 -0.415153
                                   No pseudopotential on this center.
    2          8                                                                                   -6.036809 -2.429639 -0.246433
                                   No pseudopotential on this center.
    3          8                                                                                   -5.203622  2.471744 -1.023715
                                   No pseudopotential on this center.
    4          7                                                                                   -1.646138 -0.930402 -2.281018
                                   No pseudopotential on this center.
    5          1                                                                                   -1.323966 -2.828056 -2.137428
                                   No pseudopotential on this center.
    6         16                                                                                   -1.904718  0.059137  3.130999
                                   No pseudopotential on this center.
    7          6                                                                                    0.550014  0.560670 -1.531018
                                   No pseudopotential on this center.
    8          1                                                                                    1.623217  1.108305 -3.218226
                                   No pseudopotential on this center.
    9          1                                                                                   -0.129751  2.296612 -0.621031
                                   No pseudopotential on this center.
   10          6                                                                                    1.758227 -0.269128  3.088694
                                   No pseudopotential on this center.
   11          1                                                                                    2.956254 -1.316111  4.401777
                                   No pseudopotential on this center.
   12          8                                                                                  -10.646192  0.684753 -1.188382
                                   No pseudopotential on this center.
   13          1                                                                                   -9.303583  1.929628 -1.315601
                                   No pseudopotential on this center.
   14          1                                                                                   -9.655520 -0.825802 -0.850681
                                   No pseudopotential on this center.
   15          8                                                                                   -3.005353 -6.662193  0.089290
                                   No pseudopotential on this center.
   16          1                                                                                   -4.292647 -5.317038 -0.038327
                                   No pseudopotential on this center.
   17          1                                                                                   -2.350300 -6.435579  1.775087
                                   No pseudopotential on this center.
   18          8                                                                                   -2.626257  6.761897  0.386594
                                   No pseudopotential on this center.
   19          1                                                                                   -3.561179  5.258669 -0.207811
                                   No pseudopotential on this center.
   20          1                                                                                   -3.213961  6.954780  2.099545
                                   No pseudopotential on this center.
   21          6                                                                                    2.317101 -0.826012  0.319294
                                   No pseudopotential on this center.
   22          1                                                                                    2.056258 -2.822389  0.132331
                                   No pseudopotential on this center.
   23          1                                                                                    2.164699  1.653553  3.564708
                                   No pseudopotential on this center.
   24         53           17                                                                       6.086735  0.098656 -0.507293
                                      F and up 
                                                     2        2.0065999       -2.60678697
                                                     2        5.4120002      -15.30154037
                                                     2       20.8878994      -73.32185364
                                                     1       63.8210983      -23.43061638
                                      S - F
                                                     2        1.5301000     -144.29801941
                                                     2        1.8566001      252.49822998
                                                     2        2.5843000     -200.15640259
                                                     2        3.7542000       85.98131561
                                                     1        1.1387000       32.24239349
                                                     0       12.4701004        6.45168209
                                      P - F
                                                     2        0.9111000       32.43734360
                                                     2        1.0657999     -101.57602692
                                                     2        1.3899000      169.25859070
                                                     2        1.7958000     -105.27653503
                                                     1        2.5479000       12.12060356
                                                     0        1.1725000        6.45733500
                                      D - F
                                                     2        0.8653000        3.41730189
                                                     2        0.8996000       -3.97894001
                                                     2        4.5872002      -37.31042862
                                                     2        5.5282001       77.44996643
                                                     1       22.2080002       18.01509857
                                                     0       19.1401005        6.86909294
 ===================================================================================================================================
 There are   401 symmetry adapted basis functions of A   symmetry.
 Integral buffers will be    131072 words long.
 Raffenetti 2 integral format.
 Two-electron integral symmetry is turned on.
   401 basis functions,   721 primitive gaussians,   427 cartesian basis functions
    63 alpha electrons       63 beta electrons
       nuclear repulsion energy      1149.4248037558 Hartrees.
 IExCor= 402 DFT=T Ex=B+HF Corr=LYP ExCW=0 ScaHFX=  0.200000
 ScaDFX=  0.800000  0.720000  1.000000  0.810000
 IRadAn=      5 IRanWt=     -1 IRanGd=            0 ICorTp=0
 NAtoms=   24 NActive=   24 NUniq=   24 SFac= 7.50D-01 NAtFMM=   80 NAOKFM=F Big=F
 Leave Link  301 at Sat Aug  2 14:59:56 2008, MaxMem=  536870912 cpu:       0.7
 (Enter /usr/local/Chem-Apps/g03_d01/g03/l302.exe)
 NPDir=0 NMtPBC=     1 NCelOv=     1 NCel=       1 NClECP=     1 NCelD=      1
         NCelK=      1 NCelE2=     1 NClLst=     1 CellRange=     0.0.
 One-electron integrals computed using PRISM.
   1 Symmetry operations used in ECPInt.
 ECPInt:  NShTT=   15051 NPrTT=   77353 LenC2=   14591 LenP2D=   50924.
 LDataN:  DoStor=F MaxTD1= 5 Len=  102
 LDataN:  DoStor=T MaxTD1= 5 Len=  102
 NBasis=   401 RedAO= T  NBF=   401
 NBsUse=   401 1.00D-06 NBFU=   401
 Precomputing XC quadrature grid using
 IXCGrd= 2 IRadAn=           5 IRanWt=          -1 IRanGd=           0.
 Defaulting to unpruned grid for atomic number  53.
 NRdTot=    2061 NPtTot=      581594 NUsed=      596118 NTot=      596150
 NSgBfM=   425   425   425   425.
 Leave Link  302 at Sat Aug  2 14:59:58 2008, MaxMem=  536870912 cpu:      22.8
 (Enter /usr/local/Chem-Apps/g03_d01/g03/l303.exe)
 DipDrv:  MaxL=1.
 Leave Link  303 at Sat Aug  2 14:59:58 2008, MaxMem=  536870912 cpu:       1.8
 (Enter /usr/local/Chem-Apps/g03_d01/g03/l401.exe)
 Harris functional with IExCor=  402 diagonalized for initial guess.
 ExpMin= 2.97D-02 ExpMax= 1.11D+05 ExpMxC= 3.24D+03 IAcc=3 IRadAn=         5 AccDes= 0.00D+00
 HarFok:  IExCor= 402 AccDes= 0.00D+00 IRadAn=         5 IDoV=1
 ScaDFX=  1.000000  1.000000  1.000000  1.000000
 Defaulting to unpruned grid for atomic number  53.
 Defaulting to unpruned grid for atomic number  53.
 Defaulting to unpruned grid for atomic number  53.
 Defaulting to unpruned grid for atomic number  53.
 Defaulting to unpruned grid for atomic number  53.
 Defaulting to unpruned grid for atomic number  53.
 Defaulting to unpruned grid for atomic number  53.
 Defaulting to unpruned grid for atomic number  53.
 Defaulting to unpruned grid for atomic number  53.
 Defaulting to unpruned grid for atomic number  53.
 Defaulting to unpruned grid for atomic number  53.
 Defaulting to unpruned grid for atomic number  53.
 Defaulting to unpruned grid for atomic number  53.
 Defaulting to unpruned grid for atomic number  53.
 Defaulting to unpruned grid for atomic number  53.
 Defaulting to unpruned grid for atomic number  53.
 Harris En=  1666.17113866684    
 Initial guess orbital symmetries:
       Occupied  (A) (A) (A) (A) (A) (A) (A) (A) (A) (A) (A) (A)
                 (A) (A) (A) (A) (A) (A) (A) (A) (A) (A) (A) (A)
                 (A) (A) (A) (A) (A) (A) (A) (A) (A) (A) (A) (A)
                 (A) (A) (A) (A) (A) (A) (A) (A) (A) (A) (A) (A)
                 (A) (A) (A) (A) (A) (A) (A) (A) (A) (A) (A) (A)
                 (A) (A) (A)
       Virtual   (A) (A) (A) (A) (A) (A) (A) (A) (A) (A) (A) (A)
                 (A) (A) (A) (A) (A) (A) (A) (A) (A) (A) (A) (A)
                 (A) (A) (A) (A) (A) (A) (A) (A) (A) (A) (A) (A)
                 (A) (A) (A) (A) (A) (A) (A) (A) (A) (A) (A) (A)
                 (A) (A) (A) (A) (A) (A) (A) (A) (A) (A) (A) (A)
                 (A) (A) (A) (A) (A) (A) (A) (A) (A) (A) (A) (A)
                 (A) (A) (A) (A) (A) (A) (A) (A) (A) (A) (A) (A)
                 (A) (A) (A) (A) (A) (A) (A) (A) (A) (A) (A) (A)
                 (A) (A) (A) (A) (A) (A) (A) (A) (A) (A) (A) (A)
                 (A) (A) (A) (A) (A) (A) (A) (A) (A) (A) (A) (A)
                 (A) (A) (A) (A) (A) (A) (A) (A) (A) (A) (A) (A)
                 (A) (A) (A) (A) (A) (A) (A) (A) (A) (A) (A) (A)
                 (A) (A) (A) (A) (A) (A) (A) (A) (A) (A) (A) (A)
                 (A) (A) (A) (A) (A) (A) (A) (A) (A) (A) (A) (A)
                 (A) (A) (A) (A) (A) (A) (A) (A) (A) (A) (A) (A)
                 (A) (A) (A) (A) (A) (A) (A) (A) (A) (A) (A) (A)
                 (A) (A) (A) (A) (A) (A) (A) (A) (A) (A) (A) (A)
                 (A) (A) (A) (A) (A) (A) (A) (A) (A) (A) (A) (A)
                 (A) (A) (A) (A) (A) (A) (A) (A) (A) (A) (A) (A)
                 (A) (A) (A) (A) (A) (A) (A) (A) (A) (A) (A) (A)
                 (A) (A) (A) (A) (A) (A) (A) (A) (A) (A) (A) (A)
                 (A) (A) (A) (A) (A) (A) (A) (A) (A) (A) (A) (A)
                 (A) (A) (A) (A) (A) (A) (A) (A) (A) (A) (A) (A)
                 (A) (A) (A) (A) (A) (A) (A) (A) (A) (A) (A) (A)
                 (A) (A) (A) (A) (A) (A) (A) (A) (A) (A) (A) (A)
                 (A) (A) (A) (A) (A) (A) (A) (A) (A) (A) (A) (A)
                 (A) (A) (A) (A) (A) (A) (A) (A) (A) (A) (A) (A)
                 (A) (A) (A) (A) (A) (A) (A) (A) (A) (A) (A) (A)
                 (A) (A)
 The electronic state of the initial guess is 1-A.
 Leave Link  401 at Sat Aug  2 15:00:02 2008, MaxMem=  536870912 cpu:      53.6
 (Enter /usr/local/Chem-Apps/g03_d01/g03/l502.exe)
 Closed shell SCF:
 Requested convergence on RMS density matrix=1.00D-08 within 128 cycles.
 Requested convergence on MAX density matrix=1.00D-06.
 Requested convergence on             energy=1.00D-06.
 No special actions if energy rises.
 Using DIIS extrapolation, IDIIS=  1040.
 Integral symmetry usage will be decided dynamically.
       596117 words used for storage of precomputed grid.
 IEnd=   1261179 IEndB=   1261179 NGot= 536870912 MDV= 535809130
 LenX= 535809130
 Fock matrices will be formed incrementally for  20 cycles.

 Cycle   1  Pass 1  IDiag  1:
 Petite list used in FoFDir.
 MinBra= 0 MaxBra= 2 Meth= 1.
 IRaf=       0 NMat=   1 IRICut=       1 DoRegI=T DoRafI=F ISym2E= 1 JSym2E=1.
 Defaulting to unpruned grid for atomic number  53.
 Defaulting to unpruned grid for atomic number  53.
 Defaulting to unpruned grid for atomic number  53.
 Defaulting to unpruned grid for atomic number  53.
 Defaulting to unpruned grid for atomic number  53.
 Defaulting to unpruned grid for atomic number  53.
 Defaulting to unpruned grid for atomic number  53.
 Defaulting to unpruned grid for atomic number  53.
 Defaulting to unpruned grid for atomic number  53.
 Defaulting to unpruned grid for atomic number  53.
 Defaulting to unpruned grid for atomic number  53.
 Defaulting to unpruned grid for atomic number  53.
 Defaulting to unpruned grid for atomic number  53.
 Defaulting to unpruned grid for atomic number  53.
 Defaulting to unpruned grid for atomic number  53.
 Defaulting to unpruned grid for atomic number  53.
 E= -1388.42090425416    
 DIIS: error= 8.13D-01 at cycle   1 NSaved=   1.
 NSaved= 1 IEnMin= 1 EnMin= -1388.42090425416     IErMin= 1 ErrMin= 8.13D-01
 ErrMax= 8.13D-01 EMaxC= 1.00D-01 BMatC= 8.24D+01 BMatP= 8.24D+01
 IDIUse=3 WtCom= 0.00D+00 WtEn= 1.00D+00
 Coeff-Com:  0.100D+01
 Coeff-En:   0.100D+01
 Coeff:      0.100D+01
 Gap=     0.235 Goal=   None    Shift=    0.000
 GapD=    0.235 DampG=1.000 DampE=0.250 DampFc=0.2500 IDamp=-1.
 Damping current iteration by 2.50D-01
 RMSDP=5.40D-02 MaxDP=9.42D+00              OVMax= 5.21D-01

 Cycle   2  Pass 1  IDiag  1:
 RMSU=  1.35D-02    CP:  9.90D-01
 E= -1392.98251875478     Delta-E=       -4.561614500615 Rises=F Damp=T
 DIIS: error= 5.65D-01 at cycle   2 NSaved=   2.
 NSaved= 2 IEnMin= 2 EnMin= -1392.98251875478     IErMin= 2 ErrMin= 5.65D-01
 ErrMax= 5.65D-01 EMaxC= 1.00D-01 BMatC= 3.92D+01 BMatP= 8.24D+01
 IDIUse=3 WtCom= 0.00D+00 WtEn= 1.00D+00
 Coeff-Com: -0.213D+01 0.313D+01
 Coeff-En:   0.000D+00 0.100D+01
 Coeff:      0.000D+00 0.100D+01
 Gap=     0.173 Goal=   None    Shift=    0.000
 RMSDP=1.82D-02 MaxDP=1.97D+00 DE=-4.56D+00 OVMax= 1.49D-01

 Cycle   3  Pass 1  IDiag  1:
 RMSU=  1.18D-02    CP:  9.15D-01  2.00D+00
 E= -1402.80039208182     Delta-E=       -9.817873327047 Rises=F Damp=F
 DIIS: error= 1.54D-01 at cycle   3 NSaved=   3.
 NSaved= 3 IEnMin= 3 EnMin= -1402.80039208182     IErMin= 3 ErrMin= 1.54D-01
 ErrMax= 1.54D-01 EMaxC= 1.00D-01 BMatC= 2.50D+00 BMatP= 3.92D+01
 IDIUse=3 WtCom= 0.00D+00 WtEn= 1.00D+00
 Coeff-Com:  0.222D+00-0.144D+00 0.922D+00
 Coeff-En:   0.000D+00 0.000D+00 0.100D+01
 Coeff:      0.000D+00 0.000D+00 0.100D+01
 Gap=     0.214 Goal=   None    Shift=    0.000
 RMSDP=2.86D-02 MaxDP=3.93D+00 DE=-9.82D+00 OVMax= 1.50D-01

 Cycle   4  Pass 1  IDiag  1:
 RMSU=  9.39D-03    CP:  9.50D-01  3.49D-02  5.73D-01
 E= -1403.17035560334     Delta-E=       -0.369963521522 Rises=F Damp=F
 DIIS: error= 6.09D-02 at cycle   4 NSaved=   4.
 NSaved= 4 IEnMin= 4 EnMin= -1403.17035560334     IErMin= 4 ErrMin= 6.09D-02
 ErrMax= 6.09D-02 EMaxC= 1.00D-01 BMatC= 9.15D-01 BMatP= 2.50D+00
 IDIUse=3 WtCom= 3.91D-01 WtEn= 6.09D-01
 Coeff-Com: -0.826D+00 0.115D+01 0.232D-01 0.655D+00
 Coeff-En:   0.000D+00 0.000D+00 0.335D+00 0.665D+00
 Coeff:     -0.323D+00 0.449D+00 0.213D+00 0.661D+00
 Gap=     0.211 Goal=   None    Shift=    0.000
 RMSDP=1.82D-02 MaxDP=3.08D+00 DE=-3.70D-01 OVMax= 1.22D-01

 Cycle   5  Pass 1  IDiag  1:
 RMSU=  3.99D-03    CP:  9.24D-01  1.31D+00  4.83D-01  5.75D-01
 E= -1403.60949890116     Delta-E=       -0.439143297811 Rises=F Damp=F
 DIIS: error= 7.98D-03 at cycle   5 NSaved=   5.
 NSaved= 5 IEnMin= 5 EnMin= -1403.60949890116     IErMin= 5 ErrMin= 7.98D-03
 ErrMax= 7.98D-03 EMaxC= 1.00D-01 BMatC= 1.12D-01 BMatP= 9.15D-01
 IDIUse=3 WtCom= 9.20D-01 WtEn= 7.98D-02
 Coeff-Com: -0.303D+00 0.417D+00 0.921D-01 0.435D+00 0.359D+00
 Coeff-En:   0.000D+00 0.000D+00 0.000D+00 0.108D+00 0.892D+00
 Coeff:     -0.279D+00 0.384D+00 0.848D-01 0.409D+00 0.401D+00
 Gap=     0.188 Goal=   None    Shift=    0.000
 RMSDP=5.04D-03 MaxDP=1.02D+00 DE=-4.39D-01 OVMax= 5.72D-02

 Cycle   6  Pass 1  IDiag  1:
 RMSU=  1.07D-03    CP:  9.09D-01  1.06D+00  7.21D-01  4.89D-01  5.45D-01
 E= -1403.69993482069     Delta-E=       -0.090435919532 Rises=F Damp=F
 DIIS: error= 2.82D-03 at cycle   6 NSaved=   6.
 NSaved= 6 IEnMin= 6 EnMin= -1403.69993482069     IErMin= 6 ErrMin= 2.82D-03
 ErrMax= 2.82D-03 EMaxC= 1.00D-01 BMatC= 5.63D-03 BMatP= 1.12D-01
 IDIUse=3 WtCom= 9.72D-01 WtEn= 2.82D-02
 Coeff-Com: -0.163D+00 0.224D+00 0.312D-01 0.174D+00 0.182D+00 0.552D+00
 Coeff-En:   0.000D+00 0.000D+00 0.000D+00 0.000D+00 0.000D+00 0.100D+01
 Coeff:     -0.159D+00 0.218D+00 0.303D-01 0.169D+00 0.177D+00 0.565D+00
 Gap=     0.174 Goal=   None    Shift=    0.000
 RMSDP=7.63D-04 MaxDP=1.05D-01 DE=-9.04D-02 OVMax= 1.50D-02

 Cycle   7  Pass 1  IDiag  1:
 RMSU=  4.35D-04    CP:  9.11D-01  1.04D+00  7.54D-01  4.83D-01  5.19D-01
                    CP:  6.54D-01
 E= -1403.70389923930     Delta-E=       -0.003964418614 Rises=F Damp=F
 DIIS: error= 2.12D-03 at cycle   7 NSaved=   7.
 NSaved= 7 IEnMin= 7 EnMin= -1403.70389923930     IErMin= 7 ErrMin= 2.12D-03
 ErrMax= 2.12D-03 EMaxC= 1.00D-01 BMatC= 9.74D-04 BMatP= 5.63D-03
 IDIUse=3 WtCom= 9.79D-01 WtEn= 2.12D-02
 Coeff-Com: -0.630D-01 0.859D-01 0.971D-02 0.415D-01 0.467D-01 0.345D+00
 Coeff-Com:  0.534D+00
 Coeff-En:   0.000D+00 0.000D+00 0.000D+00 0.000D+00 0.000D+00 0.000D+00
 Coeff-En:   0.100D+01
 Coeff:     -0.617D-01 0.841D-01 0.951D-02 0.406D-01 0.457D-01 0.338D+00
 Coeff:      0.544D+00
 Gap=     0.171 Goal=   None    Shift=    0.000
 RMSDP=2.87D-04 MaxDP=3.69D-02 DE=-3.96D-03 OVMax= 4.45D-03

 Cycle   8  Pass 1  IDiag  1:
 RMSU=  1.17D-04    CP:  9.09D-01  1.04D+00  7.68D-01  4.69D-01  4.94D-01
                    CP:  6.86D-01  1.05D+00
 E= -1403.70436759263     Delta-E=       -0.000468353328 Rises=F Damp=F
 DIIS: error= 8.74D-04 at cycle   8 NSaved=   8.
 NSaved= 8 IEnMin= 8 EnMin= -1403.70436759263     IErMin= 8 ErrMin= 8.74D-04
 ErrMax= 8.74D-04 EMaxC= 1.00D-01 BMatC= 1.53D-04 BMatP= 9.74D-04
 IDIUse=3 WtCom= 9.91D-01 WtEn= 8.74D-03
 Coeff-Com: -0.105D-01 0.140D-01 0.326D-02-0.527D-02-0.450D-02 0.121D+00
 Coeff-Com:  0.341D+00 0.541D+00
 Coeff-En:   0.000D+00 0.000D+00 0.000D+00 0.000D+00 0.000D+00 0.000D+00
 Coeff-En:   0.000D+00 0.100D+01
 Coeff:     -0.104D-01 0.138D-01 0.323D-02-0.522D-02-0.446D-02 0.120D+00
 Coeff:      0.338D+00 0.545D+00
 Gap=     0.171 Goal=   None    Shift=    0.000
 RMSDP=2.22D-04 MaxDP=2.98D-02 DE=-4.68D-04 OVMax= 2.14D-03

 Cycle   9  Pass 1  IDiag  1:
 RMSU=  4.04D-05    CP:  9.09D-01  1.06D+00  7.68D-01  4.62D-01  4.95D-01
                    CP:  7.19D-01  1.03D+00  8.65D-01
 E= -1403.70444254799     Delta-E=       -0.000074955360 Rises=F Damp=F
 DIIS: error= 1.36D-04 at cycle   9 NSaved=   9.
 NSaved= 9 IEnMin= 9 EnMin= -1403.70444254799     IErMin= 9 ErrMin= 1.36D-04
 ErrMax= 1.36D-04 EMaxC= 1.00D-01 BMatC= 9.67D-06 BMatP= 1.53D-04
 IDIUse=3 WtCom= 9.99D-01 WtEn= 1.36D-03
 Coeff-Com: -0.147D-02 0.174D-02 0.140D-02-0.575D-02-0.661D-02 0.409D-01
 Coeff-Com:  0.142D+00 0.312D+00 0.516D+00
 Coeff-En:   0.000D+00 0.000D+00 0.000D+00 0.000D+00 0.000D+00 0.000D+00
 Coeff-En:   0.000D+00 0.000D+00 0.100D+01
 Coeff:     -0.147D-02 0.174D-02 0.140D-02-0.574D-02-0.660D-02 0.408D-01
 Coeff:      0.142D+00 0.312D+00 0.516D+00
 Gap=     0.171 Goal=   None    Shift=    0.000
 RMSDP=4.46D-05 MaxDP=5.69D-03 DE=-7.50D-05 OVMax= 7.43D-04

 Cycle  10  Pass 1  IDiag  1:
 RMSU=  1.58D-05    CP:  9.08D-01  1.06D+00  7.68D-01  4.61D-01  4.96D-01
                    CP:  7.19D-01  1.03D+00  8.00D-01  9.90D-01
 E= -1403.70444795749     Delta-E=       -0.000005409504 Rises=F Damp=F
 DIIS: error= 2.66D-05 at cycle  10 NSaved=  10.
 NSaved=10 IEnMin=10 EnMin= -1403.70444795749     IErMin=10 ErrMin= 2.66D-05
 ErrMax= 2.66D-05 EMaxC= 1.00D-01 BMatC= 1.39D-06 BMatP= 9.67D-06
 IDIUse=1 WtCom= 1.00D+00 WtEn= 0.00D+00
 Coeff-Com:  0.123D-03-0.236D-03 0.276D-03-0.939D-03-0.189D-02 0.171D-02
 Coeff-Com:  0.850D-02 0.535D-01 0.317D+00 0.622D+00
 Coeff:      0.123D-03-0.236D-03 0.276D-03-0.939D-03-0.189D-02 0.171D-02
 Coeff:      0.850D-02 0.535D-01 0.317D+00 0.622D+00
 Gap=     0.171 Goal=   None    Shift=    0.000
 RMSDP=2.45D-05 MaxDP=4.71D-03 DE=-5.41D-06 OVMax= 2.35D-04

 Cycle  11  Pass 1  IDiag  1:
 RMSU=  5.46D-06    CP:  9.08D-01  1.06D+00  7.70D-01  4.60D-01  4.94D-01
                    CP:  7.19D-01  1.04D+00  8.18D-01  9.83D-01  8.70D-01
 E= -1403.70444912480     Delta-E=       -0.000001167307 Rises=F Damp=F
 DIIS: error= 6.08D-06 at cycle  11 NSaved=  11.
 NSaved=11 IEnMin=11 EnMin= -1403.70444912480     IErMin=11 ErrMin= 6.08D-06
 ErrMax= 6.08D-06 EMaxC= 1.00D-01 BMatC= 9.80D-08 BMatP= 1.39D-06
 IDIUse=1 WtCom= 1.00D+00 WtEn= 0.00D+00
 Coeff-Com: -0.162D-03 0.201D-03 0.722D-04-0.464D-04-0.609D-03-0.376D-03
 Coeff-Com: -0.170D-02 0.133D-01 0.146D+00 0.347D+00 0.497D+00
 Coeff:     -0.162D-03 0.201D-03 0.722D-04-0.464D-04-0.609D-03-0.376D-03
 Coeff:     -0.170D-02 0.133D-01 0.146D+00 0.347D+00 0.497D+00
 Gap=     0.171 Goal=   None    Shift=    0.000
 RMSDP=5.63D-06 MaxDP=8.18D-04 DE=-1.17D-06 OVMax= 8.75D-05

 Cycle  12  Pass 1  IDiag  1:
 RMSU=  1.58D-06    CP:  9.08D-01  1.06D+00  7.70D-01  4.60D-01  4.94D-01
                    CP:  7.18D-01  1.04D+00  8.32D-01  9.87D-01  7.89D-01
                    CP:  5.65D-01
 E= -1403.70444921558     Delta-E=       -0.000000090778 Rises=F Damp=F
 DIIS: error= 3.88D-06 at cycle  12 NSaved=  12.
 NSaved=12 IEnMin=12 EnMin= -1403.70444921558     IErMin=12 ErrMin= 3.88D-06
 ErrMax= 3.88D-06 EMaxC= 1.00D-01 BMatC= 5.87D-09 BMatP= 9.80D-08
 IDIUse=1 WtCom= 1.00D+00 WtEn= 0.00D+00
 Coeff-Com: -0.103D-04 0.109D-04 0.915D-06-0.122D-04-0.175D-03-0.735D-03
 Coeff-Com: -0.203D-02 0.804D-03 0.381D-01 0.103D+00 0.220D+00 0.641D+00
 Coeff:     -0.103D-04 0.109D-04 0.915D-06-0.122D-04-0.175D-03-0.735D-03
 Coeff:     -0.203D-02 0.804D-03 0.381D-01 0.103D+00 0.220D+00 0.641D+00
 Gap=     0.171 Goal=   None    Shift=    0.000
 RMSDP=1.94D-06 MaxDP=2.79D-04 DE=-9.08D-08 OVMax= 2.35D-05

 Cycle  13  Pass 1  IDiag  1:
 RMSU=  3.85D-07    CP:  9.08D-01  1.06D+00  7.70D-01  4.60D-01  4.94D-01
                    CP:  7.19D-01  1.04D+00  8.30D-01  9.93D-01  8.03D-01
                    CP:  5.73D-01  8.45D-01
 E= -1403.70444922060     Delta-E=       -0.000000005016 Rises=F Damp=F
 DIIS: error= 4.22D-07 at cycle  13 NSaved=  13.
 NSaved=13 IEnMin=13 EnMin= -1403.70444922060     IErMin=13 ErrMin= 4.22D-07
 ErrMax= 4.22D-07 EMaxC= 1.00D-01 BMatC= 4.63D-10 BMatP= 5.87D-09
 IDIUse=1 WtCom= 1.00D+00 WtEn= 0.00D+00
 Coeff-Com:  0.553D-05-0.796D-05-0.417D-05-0.843D-05-0.483D-04-0.352D-03
 Coeff-Com: -0.888D-03-0.321D-03 0.102D-01 0.295D-01 0.781D-01 0.334D+00
 Coeff-Com:  0.550D+00
 Coeff:      0.553D-05-0.796D-05-0.417D-05-0.843D-05-0.483D-04-0.352D-03
 Coeff:     -0.888D-03-0.321D-03 0.102D-01 0.295D-01 0.781D-01 0.334D+00
 Coeff:      0.550D+00
 Gap=     0.171 Goal=   None    Shift=    0.000
 RMSDP=3.14D-07 MaxDP=3.89D-05 DE=-5.02D-09 OVMax= 4.61D-06

 Cycle  14  Pass 1  IDiag  1:
 RMSU=  9.50D-08    CP:  9.08D-01  1.06D+00  7.70D-01  4.60D-01  4.94D-01
                    CP:  7.19D-01  1.04D+00  8.30D-01  9.93D-01  8.07D-01
                    CP:  5.98D-01  8.25D-01  7.48D-01
 E= -1403.70444922101     Delta-E=       -0.000000000414 Rises=F Damp=F
 DIIS: error= 1.27D-07 at cycle  14 NSaved=  14.
 NSaved=14 IEnMin=14 EnMin= -1403.70444922101     IErMin=14 ErrMin= 1.27D-07
 ErrMax= 1.27D-07 EMaxC= 1.00D-01 BMatC= 3.95D-11 BMatP= 4.63D-10
 IDIUse=1 WtCom= 1.00D+00 WtEn= 0.00D+00
 Coeff-Com:  0.408D-06-0.505D-06-0.155D-05 0.134D-06-0.254D-05-0.990D-04
 Coeff-Com: -0.265D-03-0.179D-03 0.189D-02 0.543D-02 0.188D-01 0.110D+00
 Coeff-Com:  0.277D+00 0.588D+00
 Coeff:      0.408D-06-0.505D-06-0.155D-05 0.134D-06-0.254D-05-0.990D-04
 Coeff:     -0.265D-03-0.179D-03 0.189D-02 0.543D-02 0.188D-01 0.110D+00
 Coeff:      0.277D+00 0.588D+00
 Gap=     0.171 Goal=   None    Shift=    0.000
 RMSDP=1.33D-07 MaxDP=2.34D-05 DE=-4.14D-10 OVMax= 1.21D-06

 Cycle  15  Pass 1  IDiag  1:
 RMSU=  2.70D-08    CP:  9.08D-01  1.06D+00  7.70D-01  4.60D-01  4.94D-01
                    CP:  7.19D-01  1.04D+00  8.30D-01  9.93D-01  8.07D-01
                    CP:  5.97D-01  8.37D-01  7.50D-01  8.71D-01
 E= -1403.70444922106     Delta-E=       -0.000000000054 Rises=F Damp=F
 DIIS: error= 2.96D-08 at cycle  15 NSaved=  15.
 NSaved=15 IEnMin=15 EnMin= -1403.70444922106     IErMin=15 ErrMin= 2.96D-08
 ErrMax= 2.96D-08 EMaxC= 1.00D-01 BMatC= 2.44D-12 BMatP= 3.95D-11
 IDIUse=1 WtCom= 1.00D+00 WtEn= 0.00D+00
 Coeff-Com:  0.204D-05-0.275D-05-0.365D-06-0.860D-06 0.234D-05-0.182D-04
 Coeff-Com: -0.471D-04-0.223D-04-0.384D-04-0.447D-03 0.791D-03 0.165D-01
 Coeff-Com:  0.651D-01 0.243D+00 0.675D+00
 Coeff:      0.204D-05-0.275D-05-0.365D-06-0.860D-06 0.234D-05-0.182D-04
 Coeff:     -0.471D-04-0.223D-04-0.384D-04-0.447D-03 0.791D-03 0.165D-01
 Coeff:      0.651D-01 0.243D+00 0.675D+00
 Gap=     0.171 Goal=   None    Shift=    0.000
 RMSDP=2.87D-08 MaxDP=3.00D-06 DE=-5.41D-11 OVMax= 4.25D-07

 Cycle  16  Pass 1  IDiag  1:
 RMSU=  9.30D-09    CP:  9.08D-01  1.06D+00  7.70D-01  4.60D-01  4.94D-01
                    CP:  7.19D-01  1.04D+00  8.30D-01  9.93D-01  8.06D-01
                    CP:  5.94D-01  8.43D-01  7.66D-01  8.52D-01  8.64D-01
 E= -1403.70444922107     Delta-E=       -0.000000000008 Rises=F Damp=F
 DIIS: error= 3.14D-08 at cycle  16 NSaved=  16.
 NSaved=16 IEnMin=16 EnMin= -1403.70444922107     IErMin=15 ErrMin= 2.96D-08
 ErrMax= 3.14D-08 EMaxC= 1.00D-01 BMatC= 3.44D-13 BMatP= 2.44D-12
 IDIUse=1 WtCom= 1.00D+00 WtEn= 0.00D+00
 Coeff-Com:  0.566D-06-0.747D-06-0.120D-06-0.134D-06 0.148D-05 0.588D-06
 Coeff-Com:  0.425D-06 0.748D-05-0.184D-03-0.728D-03-0.128D-02-0.120D-02
 Coeff-Com:  0.724D-02 0.599D-01 0.303D+00 0.633D+00
 Coeff:      0.566D-06-0.747D-06-0.120D-06-0.134D-06 0.148D-05 0.588D-06
 Coeff:      0.425D-06 0.748D-05-0.184D-03-0.728D-03-0.128D-02-0.120D-02
 Coeff:      0.724D-02 0.599D-01 0.303D+00 0.633D+00
 Gap=     0.171 Goal=   None    Shift=    0.000
 RMSDP=8.60D-09 MaxDP=8.68D-07 DE=-8.19D-12 OVMax= 1.10D-07

 SCF Done:  E(RB+HF-LYP) =  -1403.70444922     A.U. after   16 cycles
             Convg  =    0.8604D-08             -V/T =  2.0325
             S**2   =   0.0000
 KE= 1.359552131111D+03 PE=-5.635948853399D+03 EE= 1.723267469311D+03
 Leave Link  502 at Sat Aug  2 15:04:02 2008, MaxMem=  536870912 cpu:    3728.5
 (Enter /usr/local/Chem-Apps/g03_d01/g03/l601.exe)
 Copying SCF densities to generalized density rwf, ISCF=0 IROHF=0.

 **********************************************************************

            Population analysis using the SCF density.

 **********************************************************************

 Orbital symmetries:
       Occupied  (A) (A) (A) (A) (A) (A) (A) (A) (A) (A) (A) (A)
                 (A) (A) (A) (A) (A) (A) (A) (A) (A) (A) (A) (A)
                 (A) (A) (A) (A) (A) (A) (A) (A) (A) (A) (A) (A)
                 (A) (A) (A) (A) (A) (A) (A) (A) (A) (A) (A) (A)
                 (A) (A) (A) (A) (A) (A) (A) (A) (A) (A) (A) (A)
                 (A) (A) (A)
       Virtual   (A) (A) (A) (A) (A) (A) (A) (A) (A) (A) (A) (A)
                 (A) (A) (A) (A) (A) (A) (A) (A) (A) (A) (A) (A)
                 (A) (A) (A) (A) (A) (A) (A) (A) (A) (A) (A) (A)
                 (A) (A) (A) (A) (A) (A) (A) (A) (A) (A) (A) (A)
                 (A) (A) (A) (A) (A) (A) (A) (A) (A) (A) (A) (A)
                 (A) (A) (A) (A) (A) (A) (A) (A) (A) (A) (A) (A)
                 (A) (A) (A) (A) (A) (A) (A) (A) (A) (A) (A) (A)
                 (A) (A) (A) (A) (A) (A) (A) (A) (A) (A) (A) (A)
                 (A) (A) (A) (A) (A) (A) (A) (A) (A) (A) (A) (A)
                 (A) (A) (A) (A) (A) (A) (A) (A) (A) (A) (A) (A)
                 (A) (A) (A) (A) (A) (A) (A) (A) (A) (A) (A) (A)
                 (A) (A) (A) (A) (A) (A) (A) (A) (A) (A) (A) (A)
                 (A) (A) (A) (A) (A) (A) (A) (A) (A) (A) (A) (A)
                 (A) (A) (A) (A) (A) (A) (A) (A) (A) (A) (A) (A)
                 (A) (A) (A) (A) (A) (A) (A) (A) (A) (A) (A) (A)
                 (A) (A) (A) (A) (A) (A) (A) (A) (A) (A) (A) (A)
                 (A) (A) (A) (A) (A) (A) (A) (A) (A) (A) (A) (A)
                 (A) (A) (A) (A) (A) (A) (A) (A) (A) (A) (A) (A)
                 (A) (A) (A) (A) (A) (A) (A) (A) (A) (A) (A) (A)
                 (A) (A) (A) (A) (A) (A) (A) (A) (A) (A) (A) (A)
                 (A) (A) (A) (A) (A) (A) (A) (A) (A) (A) (A) (A)
                 (A) (A) (A) (A) (A) (A) (A) (A) (A) (A) (A) (A)
                 (A) (A) (A) (A) (A) (A) (A) (A) (A) (A) (A) (A)
                 (A) (A) (A) (A) (A) (A) (A) (A) (A) (A) (A) (A)
                 (A) (A) (A) (A) (A) (A) (A) (A) (A) (A) (A) (A)
                 (A) (A) (A) (A) (A) (A) (A) (A) (A) (A) (A) (A)
                 (A) (A) (A) (A) (A) (A) (A) (A) (A) (A) (A) (A)
                 (A) (A) (A) (A) (A) (A) (A) (A) (A) (A) (A) (A)
                 (A) (A)
 The electronic state is 1-A.
 Alpha  occ. eigenvalues --  -88.75492 -77.10179 -19.02671 -19.01308 -19.00276
 Alpha  occ. eigenvalues --  -19.00220 -19.00163 -14.22555 -10.14552 -10.13558
 Alpha  occ. eigenvalues --  -10.12270  -7.81559  -6.55034  -5.78044  -5.77499
 Alpha  occ. eigenvalues --   -5.77032  -4.71431  -4.71241  -4.71190  -2.05313
 Alpha  occ. eigenvalues --   -2.04930  -2.04908  -2.03951  -2.03951  -0.89395
 Alpha  occ. eigenvalues --   -0.88421  -0.87246  -0.86223  -0.82779  -0.80600
 Alpha  occ. eigenvalues --   -0.72356  -0.63356  -0.58323  -0.55673  -0.50410
 Alpha  occ. eigenvalues --   -0.44867  -0.40484  -0.39460  -0.39150  -0.37632
 Alpha  occ. eigenvalues --   -0.37112  -0.33195  -0.32607  -0.31885  -0.31328
 Alpha  occ. eigenvalues --   -0.28470  -0.28131  -0.27751  -0.26479  -0.25740
 Alpha  occ. eigenvalues --   -0.24845  -0.20943  -0.20232  -0.19259  -0.18780
 Alpha  occ. eigenvalues --   -0.18462  -0.17804  -0.17396  -0.17072  -0.16798
 Alpha  occ. eigenvalues --   -0.16675  -0.13484  -0.11967
 Alpha virt. eigenvalues --    0.05135   0.05807   0.07440   0.08919   0.09265
 Alpha virt. eigenvalues --    0.09793   0.11045   0.11547   0.11922   0.12583
 Alpha virt. eigenvalues --    0.13653   0.13958   0.14502   0.15664   0.15955
 Alpha virt. eigenvalues --    0.16341   0.16587   0.17033   0.17464   0.18075
 Alpha virt. eigenvalues --    0.18333   0.18806   0.19130   0.19584   0.20183
 Alpha virt. eigenvalues --    0.20342   0.20694   0.20803   0.21654   0.22234
 Alpha virt. eigenvalues --    0.22364   0.23173   0.23831   0.24129   0.24509
 Alpha virt. eigenvalues --    0.25363   0.25504   0.26055   0.26337   0.26561
 Alpha virt. eigenvalues --    0.27341   0.28191   0.28579   0.28921   0.29556
 Alpha virt. eigenvalues --    0.30091   0.30507   0.30860   0.31010   0.31463
 Alpha virt. eigenvalues --    0.31657   0.32006   0.32803   0.32991   0.33353
 Alpha virt. eigenvalues --    0.33864   0.34147   0.34738   0.34890   0.35140
 Alpha virt. eigenvalues --    0.36023   0.36324   0.36945   0.37202   0.37909
 Alpha virt. eigenvalues --    0.38304   0.38497   0.38730   0.40272   0.41066
 Alpha virt. eigenvalues --    0.41206   0.41698   0.41964   0.42276   0.43101
 Alpha virt. eigenvalues --    0.43478   0.43613   0.44544   0.45766   0.46187
 Alpha virt. eigenvalues --    0.46714   0.47233   0.48823   0.49354   0.49491
 Alpha virt. eigenvalues --    0.50053   0.50560   0.51061   0.51432   0.52091
 Alpha virt. eigenvalues --    0.52408   0.53760   0.54004   0.54734   0.55654
 Alpha virt. eigenvalues --    0.55946   0.56908   0.57431   0.57671   0.58257
 Alpha virt. eigenvalues --    0.58651   0.59228   0.60144   0.60693   0.61729
 Alpha virt. eigenvalues --    0.62467   0.62882   0.63578   0.64058   0.64417
 Alpha virt. eigenvalues --    0.65082   0.65540   0.65899   0.66641   0.67315
 Alpha virt. eigenvalues --    0.67882   0.68960   0.69978   0.70219   0.71736
 Alpha virt. eigenvalues --    0.71915   0.72886   0.72998   0.73334   0.73922
 Alpha virt. eigenvalues --    0.75511   0.76320   0.77309   0.77934   0.78946
 Alpha virt. eigenvalues --    0.79119   0.80434   0.80718   0.81286   0.81949
 Alpha virt. eigenvalues --    0.82447   0.83300   0.84276   0.85705   0.86327
 Alpha virt. eigenvalues --    0.87499   0.88382   0.89273   0.90689   0.91901
 Alpha virt. eigenvalues --    0.93093   0.94081   0.94602   0.96691   0.96804
 Alpha virt. eigenvalues --    0.97158   0.98024   0.98705   0.99892   1.01347
 Alpha virt. eigenvalues --    1.01406   1.02504   1.03057   1.03682   1.04689
 Alpha virt. eigenvalues --    1.05628   1.06263   1.07169   1.07795   1.08376
 Alpha virt. eigenvalues --    1.09958   1.10591   1.12070   1.12320   1.13603
 Alpha virt. eigenvalues --    1.14001   1.14360   1.15578   1.15872   1.17077
 Alpha virt. eigenvalues --    1.17968   1.18448   1.18499   1.19338   1.20201
 Alpha virt. eigenvalues --    1.21678   1.22002   1.22797   1.23140   1.24482
 Alpha virt. eigenvalues --    1.25323   1.26399   1.28076   1.29248   1.30242
 Alpha virt. eigenvalues --    1.31173   1.32130   1.33293   1.33624   1.34985
 Alpha virt. eigenvalues --    1.36970   1.37564   1.38562   1.39577   1.40679
 Alpha virt. eigenvalues --    1.41687   1.42749   1.42998   1.45189   1.46541
 Alpha virt. eigenvalues --    1.47597   1.49353   1.50614   1.51759   1.54608
 Alpha virt. eigenvalues --    1.55045   1.56185   1.57560   1.58491   1.59085
 Alpha virt. eigenvalues --    1.60507   1.61192   1.64454   1.66016   1.68005
 Alpha virt. eigenvalues --    1.68589   1.69967   1.70117   1.72332   1.75363
 Alpha virt. eigenvalues --    1.76938   1.77750   1.78264   1.80198   1.80814
 Alpha virt. eigenvalues --    1.83364   1.86522   1.86955   1.88400   1.90036
 Alpha virt. eigenvalues --    1.90666   1.90970   1.91875   1.93640   1.94900
 Alpha virt. eigenvalues --    1.95318   1.96226   1.97906   1.98561   2.01162
 Alpha virt. eigenvalues --    2.02989   2.04957   2.06206   2.07294   2.08159
 Alpha virt. eigenvalues --    2.12330   2.12751   2.14769   2.16314   2.17416
 Alpha virt. eigenvalues --    2.21076   2.22494   2.24752   2.30390   2.30922
 Alpha virt. eigenvalues --    2.32362   2.32755   2.36025   2.37403   2.38180
 Alpha virt. eigenvalues --    2.38853   2.40716   2.42844   2.43834   2.45159
 Alpha virt. eigenvalues --    2.46460   2.50165   2.51058   2.54365   2.56887
 Alpha virt. eigenvalues --    2.60839   2.61418   2.63223   2.66153   2.67355
 Alpha virt. eigenvalues --    2.69896   2.70708   2.72754   2.73921   2.75611
 Alpha virt. eigenvalues --    2.78662   2.79830   2.84445   2.86705   2.90761
 Alpha virt. eigenvalues --    2.91985   2.93473   2.94099   2.96440   2.98954
 Alpha virt. eigenvalues --    3.05550   3.11693   3.32469   3.45961   3.47627
 Alpha virt. eigenvalues --    3.49181   3.50014   3.50168   3.51104   3.51442
 Alpha virt. eigenvalues --    3.53214   3.53724   3.54625   3.55343   3.56410
 Alpha virt. eigenvalues --    3.58418   3.60710   3.64459   3.68056   3.70737
 Alpha virt. eigenvalues --    3.75698   3.80228   3.84068   3.89868   3.92269
 Alpha virt. eigenvalues --    3.93277   4.12307   4.14904   4.17433   4.77473
 Alpha virt. eigenvalues --    4.78445   4.98599   5.02973   5.06458   5.96370
 Alpha virt. eigenvalues --    6.04216   6.27571  13.91146  13.91629  14.08359
 Alpha virt. eigenvalues --   14.12143  14.19658  22.87780
          Condensed to atoms (all electrons):
              1          2          3          4          5          6
     1  P   15.284694  -0.287177  -0.275158  -0.152100  -0.061387  -0.468121
     2  O   -0.287177   9.148822  -0.057428   0.013165  -0.021667   0.110279
     3  O   -0.275158  -0.057428   9.122814   0.053970   0.017655   0.090694
     4  N   -0.152100   0.013165   0.053970   8.024911   0.319285   0.071706
     5  H   -0.061387  -0.021667   0.017655   0.319285   1.103132  -0.000513
     6  S   -0.468121   0.110279   0.090694   0.071706  -0.000513  16.866881
     7  C   -1.152699   0.056782   0.021394  -1.497674  -0.374854  -0.077965
     8  H    0.158454  -0.000033   0.002323  -0.460065   0.000622  -0.045785
     9  H   -0.275673   0.019729   0.017298   0.106011   0.098331   0.074107
    10  C    0.216105  -0.001777   0.008780  -0.114934  -0.047261  -0.495511
    11  H   -0.017801   0.001393  -0.000474  -0.055687   0.000668  -0.089958
    12  O    0.043411  -0.057135  -0.044209  -0.005303  -0.000012  -0.003300
    13  H    0.021280  -0.017186   0.039772  -0.003972   0.000241  -0.007513
    14  H    0.021138   0.058731  -0.019547  -0.002192   0.000328  -0.008002
    15  O   -0.036933  -0.024839  -0.001202   0.000947   0.008874   0.002797
    16  H    0.025877   0.096867   0.001532  -0.027223   0.023837  -0.013350
    17  H    0.020877  -0.015411  -0.000067   0.011611  -0.008493  -0.000102
    18  O   -0.014412  -0.000891  -0.016017   0.014773   0.001484  -0.003043
    19  H   -0.000041   0.001494   0.082430   0.005249  -0.003617  -0.013411
    20  H    0.000847   0.000972  -0.012576  -0.001129  -0.000266   0.007439
    21  C    0.039450   0.006381   0.010583   1.073989   0.076301   0.412528
    22  H    0.072752  -0.002716   0.004197  -0.014474  -0.022838   0.052852
    23  H    0.087935   0.000739   0.006699   0.040119  -0.007335  -0.194222
    24  I    0.018686   0.000221   0.001110   0.024796  -0.006729   0.036757
              7          8          9         10         11         12
     1  P   -1.152699   0.158454  -0.275673   0.216105  -0.017801   0.043411
     2  O    0.056782  -0.000033   0.019729  -0.001777   0.001393  -0.057135
     3  O    0.021394   0.002323   0.017298   0.008780  -0.000474  -0.044209
     4  N   -1.497674  -0.460065   0.106011  -0.114934  -0.055687  -0.005303
     5  H   -0.374854   0.000622   0.098331  -0.047261   0.000668  -0.000012
     6  S   -0.077965  -0.045785   0.074107  -0.495511  -0.089958  -0.003300
     7  C   12.216833   0.103946  -0.778162   0.685392   0.306271  -0.004471
     8  H    0.103946   3.188413  -1.123555   0.214258   0.013003   0.000686
     9  H   -0.778162  -1.123555   3.899099  -0.392127   0.043189  -0.002129
    10  C    0.685392   0.214258  -0.392127   6.883849  -0.158776   0.001183
    11  H    0.306271   0.013003   0.043189  -0.158776   2.215642   0.000018
    12  O   -0.004471   0.000686  -0.002129   0.001183   0.000018   7.832434
    13  H   -0.001238   0.001174  -0.001920  -0.000107  -0.000176   0.279211
    14  H   -0.010262   0.000601  -0.002029   0.001917   0.000101   0.269239
    15  O    0.013586   0.001758   0.000728  -0.021118   0.000385  -0.000861
    16  H    0.035884   0.008205  -0.006039   0.006536   0.001274   0.000630
    17  H   -0.017372  -0.002647   0.001058  -0.002024   0.000881  -0.000082
    18  O   -0.067986   0.000432  -0.013736  -0.017759  -0.001645  -0.000160
    19  H   -0.003946  -0.000537  -0.002818   0.020744  -0.000480   0.001225
    20  H    0.009616   0.001953   0.001418   0.000055   0.000081   0.000058
    21  C   -4.663478  -0.354763  -0.199312  -1.944823  -0.041150  -0.000563
    22  H   -0.439125  -0.042980   0.069975  -0.004598  -0.177343  -0.000161
    23  H   -0.355590   0.009052  -0.133300   0.434427  -0.585506  -0.000138
    24  I    0.426630  -0.073233   0.131203   0.107145   0.056791   0.000000
             13         14         15         16         17         18
     1  P    0.021280   0.021138  -0.036933   0.025877   0.020877  -0.014412
     2  O   -0.017186   0.058731  -0.024839   0.096867  -0.015411  -0.000891
     3  O    0.039772  -0.019547  -0.001202   0.001532  -0.000067  -0.016017
     4  N   -0.003972  -0.002192   0.000947  -0.027223   0.011611   0.014773
     5  H    0.000241   0.000328   0.008874   0.023837  -0.008493   0.001484
     6  S   -0.007513  -0.008002   0.002797  -0.013350  -0.000102  -0.003043
     7  C   -0.001238  -0.010262   0.013586   0.035884  -0.017372  -0.067986
     8  H    0.001174   0.000601   0.001758   0.008205  -0.002647   0.000432
     9  H   -0.001920  -0.002029   0.000728  -0.006039   0.001058  -0.013736
    10  C   -0.000107   0.001917  -0.021118   0.006536  -0.002024  -0.017759
    11  H   -0.000176   0.000101   0.000385   0.001274   0.000881  -0.001645
    12  O    0.279211   0.269239  -0.000861   0.000630  -0.000082  -0.000160
    13  H    0.659596  -0.104623  -0.000436  -0.000459   0.000277   0.001196
    14  H   -0.104623   0.644497   0.000612  -0.000443   0.000079  -0.000296
    15  O   -0.000436   0.000612   7.833648   0.155692   0.328954   0.000006
    16  H   -0.000459  -0.000443   0.155692   0.611556  -0.074944  -0.000287
    17  H    0.000277   0.000079   0.328954  -0.074944   0.662543   0.000073
    18  O    0.001196  -0.000296   0.000006  -0.000287   0.000073   7.833304
    19  H   -0.002802   0.000289  -0.000085  -0.000105  -0.000106   0.165907
    20  H   -0.000132   0.000342   0.000034   0.000021   0.000026   0.342847
    21  C    0.000616   0.000023   0.013523  -0.030430   0.014231   0.063421
    22  H   -0.000013  -0.000142   0.005507  -0.000117   0.000655   0.002178
    23  H    0.000200  -0.000032  -0.000035   0.000830  -0.001784   0.009207
    24  I   -0.000011   0.000031  -0.000825  -0.000191  -0.000321  -0.000744
             19         20         21         22         23         24
     1  P   -0.000041   0.000847   0.039450   0.072752   0.087935   0.018686
     2  O    0.001494   0.000972   0.006381  -0.002716   0.000739   0.000221
     3  O    0.082430  -0.012576   0.010583   0.004197   0.006699   0.001110
     4  N    0.005249  -0.001129   1.073989  -0.014474   0.040119   0.024796
     5  H   -0.003617  -0.000266   0.076301  -0.022838  -0.007335  -0.006729
     6  S   -0.013411   0.007439   0.412528   0.052852  -0.194222   0.036757
     7  C   -0.003946   0.009616  -4.663478  -0.439125  -0.355590   0.426630
     8  H   -0.000537   0.001953  -0.354763  -0.042980   0.009052  -0.073233
     9  H   -0.002818   0.001418  -0.199312   0.069975  -0.133300   0.131203
    10  C    0.020744   0.000055  -1.944823  -0.004598   0.434427   0.107145
    11  H   -0.000480   0.000081  -0.041150  -0.177343  -0.585506   0.056791
    12  O    0.001225   0.000058  -0.000563  -0.000161  -0.000138   0.000000
    13  H   -0.002802  -0.000132   0.000616  -0.000013   0.000200  -0.000011
    14  H    0.000289   0.000342   0.000023  -0.000142  -0.000032   0.000031
    15  O   -0.000085   0.000034   0.013523   0.005507  -0.000035  -0.000825
    16  H   -0.000105   0.000021  -0.030430  -0.000117   0.000830  -0.000191
    17  H   -0.000106   0.000026   0.014231   0.000655  -0.001784  -0.000321
    18  O    0.165907   0.342847   0.063421   0.002178   0.009207  -0.000744
    19  H    0.603659  -0.077391  -0.000959   0.000588   0.004608  -0.002671
    20  H   -0.077391   0.661982  -0.004923  -0.000645  -0.003411  -0.000506
    21  C   -0.000959  -0.004923  12.211606  -0.064684  -0.163738  -0.849525
    22  H    0.000588  -0.000645  -0.064684   1.902289   0.144422  -0.090080
    23  H    0.004608  -0.003411  -0.163738   0.144422   2.048237  -0.046656
    24  I   -0.002671  -0.000506  -0.849525  -0.090080  -0.046656  17.299997
 Mulliken atomic charges:
              1
     1  P    1.729998
     2  O   -1.029317
     3  O   -1.054572
     4  N   -0.425777
     5  H   -0.095787
     6  S   -0.305243
     7  C    1.568486
     8  H   -0.601282
     9  H   -0.531347
    10  C    0.620423
    11  H   -0.510701
    12  O   -0.309571
    13  H    0.137025
    14  H    0.149637
    15  O   -0.280717
    16  H    0.184847
    17  H    0.082090
    18  O   -0.297853
    19  H    0.222776
    20  H    0.073287
    21  C    0.395696
    22  H   -0.395499
    23  H   -0.294727
    24  I   -0.031875
 Sum of Mulliken charges=  -1.00000
 Atomic charges with hydrogens summed into heavy atoms:
              1
     1  P    1.729998
     2  O   -1.029317
     3  O   -1.054572
     4  N   -0.521564
     5  H    0.000000
     6  S   -0.305243
     7  C    0.435858
     8  H    0.000000
     9  H    0.000000
    10  C   -0.185005
    11  H    0.000000
    12  O   -0.022908
    13  H    0.000000
    14  H    0.000000
    15  O   -0.013779
    16  H    0.000000
    17  H    0.000000
    18  O   -0.001790
    19  H    0.000000
    20  H    0.000000
    21  C    0.000197
    22  H    0.000000
    23  H    0.000000
    24  I   -0.031875
 Sum of Mulliken charges=  -1.00000
 Electronic spatial extent (au):  <R**2>=  4505.0859
 Charge=    -1.0000 electrons
 Dipole moment (field-independent basis, Debye):
    X=    12.6293    Y=    -0.9696    Z=     2.2366  Tot=    12.8624
 Quadrupole moment (field-independent basis, Debye-Ang):
   XX=  -179.8476   YY=  -142.5855   ZZ=  -116.6770
   XY=    -0.7562   XZ=    -5.8372   YZ=     1.0362
 Traceless Quadrupole moment (field-independent basis, Debye-Ang):
   XX=   -33.4776   YY=     3.7845   ZZ=    29.6930
   XY=    -0.7562   XZ=    -5.8372   YZ=     1.0362
 Octapole moment (field-independent basis, Debye-Ang**2):
  XXX=   451.5387  YYY=     6.4971  ZZZ=   -18.6078  XYY=    87.6506
  XXY=    -0.0472  XXZ=    29.9180  XZZ=    61.0348  YZZ=     4.0273
  YYZ=    20.3770  XYZ=    -9.2124
 Hexadecapole moment (field-independent basis, Debye-Ang**3):
 XXXX= -6464.5495 YYYY= -1919.8314 ZZZZ=  -680.6197 XXXY=   138.3765
 XXXZ=  -263.3783 YYYX=   -62.0738 YYYZ=    18.0588 ZZZX=   -25.3752
 ZZZY=     3.7622 XXYY= -1053.1663 XXZZ=  -914.7393 YYZZ=  -299.1095
 XXYZ=    19.8745 YYXZ=   -46.4416 ZZXY=    -4.4607
 N-N= 1.149424803756D+03 E-N=-5.635948857489D+03  KE= 1.359552131111D+03
 No NMR shielding tensors so no spin-rotation constants.
 Leave Link  601 at Sat Aug  2 15:04:03 2008, MaxMem=  536870912 cpu:      12.9
 (Enter /usr/local/Chem-Apps/g03_d01/g03/l701.exe)
 Compute integral first derivatives.
 ... and contract with generalized density number  0.
   1 Symmetry operations used in ECPInt.
 ECPInt:  NShTT=   15051 NPrTT=   77353 LenC2=   14591 LenP2D=   50924.
 LDataN:  DoStor=F MaxTD1= 6 Len=  172
 LDataN:  DoStor=T MaxTD1= 6 Len=  172
 Leave Link  701 at Sat Aug  2 15:04:05 2008, MaxMem=  536870912 cpu:      23.0
 (Enter /usr/local/Chem-Apps/g03_d01/g03/l702.exe)
 L702 exits ... SP integral derivatives will be done elsewhere.
 Leave Link  702 at Sat Aug  2 15:04:05 2008, MaxMem=  536870912 cpu:       0.0
 (Enter /usr/local/Chem-Apps/g03_d01/g03/l703.exe)
 Compute integral first derivatives, UseDBF=F.
 Integral derivatives from FoFDir, PRISM(SPDF).
 Symmetry not used in FoFDir.
 MinBra= 0 MaxBra= 2 Meth= 1.
 IRaf=       0 NMat=   1 IRICut=       1 DoRegI=T DoRafI=F ISym2E= 0 JSym2E=0.
 Defaulting to unpruned grid for atomic number  53.
 Defaulting to unpruned grid for atomic number  53.
 Defaulting to unpruned grid for atomic number  53.
 Defaulting to unpruned grid for atomic number  53.
 Defaulting to unpruned grid for atomic number  53.
 Defaulting to unpruned grid for atomic number  53.
 Defaulting to unpruned grid for atomic number  53.
 Defaulting to unpruned grid for atomic number  53.
 Defaulting to unpruned grid for atomic number  53.
 Defaulting to unpruned grid for atomic number  53.
 Defaulting to unpruned grid for atomic number  53.
 Defaulting to unpruned grid for atomic number  53.
 Defaulting to unpruned grid for atomic number  53.
 Defaulting to unpruned grid for atomic number  53.
 Defaulting to unpruned grid for atomic number  53.
 Defaulting to unpruned grid for atomic number  53.
 Leave Link  703 at Sat Aug  2 15:04:48 2008, MaxMem=  536870912 cpu:     632.1
 (Enter /usr/local/Chem-Apps/g03_d01/g03/l716.exe)
 Dipole        = 4.96875659D+00-3.81475057D-01 8.79936590D-01
 ***** Axes restored to original set *****
 -------------------------------------------------------------------
 Center     Atomic                   Forces (Hartrees/Bohr)
 Number     Number              X              Y              Z
 -------------------------------------------------------------------
    1         15          -0.009088580    0.012394070   -0.012877565
    2          8          -0.002092217   -0.002450734    0.000965510
    3          8           0.000054176    0.004334799    0.006042203
    4          7           0.006276347   -0.000887155   -0.000781694
    5          1           0.001889326   -0.001101467   -0.002636680
    6         16           0.005391427    0.008524625    0.057100538
    7          6          -0.008128211   -0.002764871   -0.015282860
[...]
                 (A) (A) (A) (A) (A) (A) (A) (A) (A) (A) (A) (A)
                 (A) (A) (A) (A) (A) (A) (A) (A) (A) (A) (A) (A)
                 (A) (A) (A) (A) (A) (A) (A) (A) (A) (A) (A) (A)
                 (A) (A) (A) (A) (A) (A) (A) (A) (A) (A) (A) (A)
                 (A) (A) (A) (A) (A) (A) (A) (A) (A) (A) (A) (A)
                 (A) (A) (A) (A) (A) (A) (A) (A) (A) (A) (A) (A)
                 (A) (A) (A) (A) (A) (A) (A) (A) (A) (A) (A) (A)
                 (A) (A) (A) (A) (A) (A) (A) (A) (A) (A) (A) (A)
                 (A) (A) (A) (A) (A) (A) (A) (A) (A) (A) (A) (A)
                 (A) (A) (A) (A) (A) (A) (A) (A) (A) (A) (A) (A)
                 (A) (A) (A) (A) (A) (A) (A) (A) (A) (A) (A) (A)
                 (A) (A) (A) (A) (A) (A) (A) (A) (A) (A) (A) (A)
                 (A) (A) (A) (A) (A) (A) (A) (A) (A) (A) (A) (A)
                 (A) (A) (A) (A) (A) (A) (A) (A) (A) (A) (A) (A)
                 (A) (A) (A) (A) (A) (A) (A) (A) (A) (A) (A) (A)
                 (A) (A) (A) (A) (A) (A) (A) (A) (A) (A) (A) (A)
                 (A) (A)
 The electronic state is 1-A.
 Alpha  occ. eigenvalues --  -88.86933 -77.14310 -19.13287 -19.13253 -19.12590
 Alpha  occ. eigenvalues --  -19.11104 -19.10742 -14.32861 -10.23748 -10.21861
 Alpha  occ. eigenvalues --  -10.21723  -7.92939  -6.61702  -5.89312  -5.89003
 Alpha  occ. eigenvalues --   -5.88424  -4.78005  -4.77843  -4.77711  -2.13052
 Alpha  occ. eigenvalues --   -2.12716  -2.12702  -2.11773  -2.11773  -1.00163
 Alpha  occ. eigenvalues --   -0.99522  -0.99036  -0.98376  -0.93578  -0.89803
 Alpha  occ. eigenvalues --   -0.80438  -0.73523  -0.66919  -0.64166  -0.58707
 Alpha  occ. eigenvalues --   -0.55155  -0.51100  -0.50603  -0.50394  -0.48068
 Alpha  occ. eigenvalues --   -0.46751  -0.44397  -0.42019  -0.41043  -0.39766
 Alpha  occ. eigenvalues --   -0.39275  -0.38632  -0.38180  -0.37635  -0.36716
 Alpha  occ. eigenvalues --   -0.35806  -0.31779  -0.31059  -0.30340  -0.30183
 Alpha  occ. eigenvalues --   -0.29887  -0.29527  -0.28674  -0.28239  -0.25626
 Alpha  occ. eigenvalues --   -0.25355  -0.25305  -0.22835
 Alpha virt. eigenvalues --   -0.05237  -0.00517   0.00252   0.01138   0.02011
 Alpha virt. eigenvalues --    0.02685   0.03625   0.04131   0.04406   0.05068
 Alpha virt. eigenvalues --    0.05752   0.06869   0.07913   0.08405   0.08491
 Alpha virt. eigenvalues --    0.09235   0.09853   0.10148   0.10231   0.11164
 Alpha virt. eigenvalues --    0.11750   0.12482   0.12926   0.13641   0.13762
 Alpha virt. eigenvalues --    0.14219   0.14472   0.14668   0.15339   0.15674
 Alpha virt. eigenvalues --    0.15941   0.16778   0.17136   0.17500   0.17759
 Alpha virt. eigenvalues --    0.18017   0.18849   0.19128   0.19630   0.20520
 Alpha virt. eigenvalues --    0.20840   0.21545   0.21587   0.22198   0.22525
 Alpha virt. eigenvalues --    0.23325   0.23759   0.23985   0.25329   0.25636
 Alpha virt. eigenvalues --    0.26364   0.26747   0.27895   0.28353   0.28837
 Alpha virt. eigenvalues --    0.29792   0.30645   0.31127   0.31547   0.32363
 Alpha virt. eigenvalues --    0.33563   0.34018   0.34845   0.35909   0.36623
 Alpha virt. eigenvalues --    0.37403   0.37673   0.38926   0.39768   0.40312
 Alpha virt. eigenvalues --    0.40466   0.41384   0.42449   0.42855   0.43374
 Alpha virt. eigenvalues --    0.44152   0.45849   0.46922   0.47076   0.47872
 Alpha virt. eigenvalues --    0.48979   0.50829   0.51164   0.52848   0.53591
 Alpha virt. eigenvalues --    0.54163   0.54621   0.55699   0.57347   0.57818
 Alpha virt. eigenvalues --    0.58580   0.59802   0.59995   0.61680   0.62347
 Alpha virt. eigenvalues --    0.63208   0.64926   0.66029   0.67314   0.68785
 Alpha virt. eigenvalues --    0.69397   0.70412   0.71063   0.72246   0.73102
 Alpha virt. eigenvalues --    0.73843   0.74056   0.75288   0.76239   0.76639
 Alpha virt. eigenvalues --    0.77545   0.77936   0.78535   0.79101   0.80385
 Alpha virt. eigenvalues --    0.81117   0.81298   0.81638   0.82161   0.84037
 Alpha virt. eigenvalues --    0.84657   0.85316   0.86613   0.87546   0.87822
 Alpha virt. eigenvalues --    0.88735   0.89729   0.90635   0.90917   0.91851
 Alpha virt. eigenvalues --    0.92810   0.93008   0.94381   0.94805   0.96339
 Alpha virt. eigenvalues --    0.96450   0.98747   0.99271   0.99760   1.00838
 Alpha virt. eigenvalues --    1.01948   1.02371   1.03253   1.04084   1.04142
 Alpha virt. eigenvalues --    1.05713   1.06663   1.08072   1.08637   1.09199
 Alpha virt. eigenvalues --    1.10363   1.10827   1.11527   1.12955   1.13337
 Alpha virt. eigenvalues --    1.13780   1.14703   1.15345   1.15836   1.17262
 Alpha virt. eigenvalues --    1.17828   1.19231   1.20828   1.21688   1.22683
 Alpha virt. eigenvalues --    1.23197   1.24563   1.25879   1.26177   1.27108
 Alpha virt. eigenvalues --    1.27675   1.29741   1.30802   1.31496   1.33272
 Alpha virt. eigenvalues --    1.34601   1.36770   1.37500   1.38652   1.39571
 Alpha virt. eigenvalues --    1.41789   1.42223   1.43302   1.44661   1.47727
 Alpha virt. eigenvalues --    1.49480   1.49645   1.52270   1.53132   1.54863
 Alpha virt. eigenvalues --    1.56448   1.56854   1.58330   1.59587   1.61781
 Alpha virt. eigenvalues --    1.62907   1.66078   1.67575   1.70055   1.71630
 Alpha virt. eigenvalues --    1.72348   1.73468   1.75318   1.75803   1.76767
 Alpha virt. eigenvalues --    1.77174   1.78753   1.79773   1.80880   1.82150
 Alpha virt. eigenvalues --    1.82897   1.83268   1.84806   1.87912   1.88251
 Alpha virt. eigenvalues --    1.88681   1.89518   1.90829   1.91677   1.93170
 Alpha virt. eigenvalues --    1.93265   1.94458   1.97933   1.98923   2.00791
 Alpha virt. eigenvalues --    2.01997   2.03594   2.05007   2.09201   2.10415
 Alpha virt. eigenvalues --    2.11839   2.12746   2.13928   2.15099   2.16969
 Alpha virt. eigenvalues --    2.21965   2.22317   2.24586   2.25373   2.27649
 Alpha virt. eigenvalues --    2.30629   2.33524   2.34413   2.35268   2.36544
 Alpha virt. eigenvalues --    2.36763   2.39098   2.41016   2.41292   2.43328
 Alpha virt. eigenvalues --    2.47553   2.47808   2.51161   2.52707   2.53350
 Alpha virt. eigenvalues --    2.53862   2.58330   2.59025   2.61052   2.62243
 Alpha virt. eigenvalues --    2.63302   2.64076   2.64572   2.69952   2.71769
 Alpha virt. eigenvalues --    2.75787   2.76894   2.80926   2.87419   3.06936
 Alpha virt. eigenvalues --    3.10665   3.19276   3.20649   3.21930   3.23843
 Alpha virt. eigenvalues --    3.25834   3.27177   3.29614   3.30750   3.34156
 Alpha virt. eigenvalues --    3.36104   3.37170   3.38536   3.44039   3.49616
 Alpha virt. eigenvalues --    3.51275   3.51830   3.55730   3.57821   3.58734
 Alpha virt. eigenvalues --    3.59864   3.66953   3.68518   3.73662   3.77020
 Alpha virt. eigenvalues --    3.80208   3.81196   3.87908   3.94046   4.65117
 Alpha virt. eigenvalues --    4.66317   4.79835   4.85687   4.92549   4.94347
 Alpha virt. eigenvalues --    4.95164   5.15857   5.28507   5.35834   5.40189
 Alpha virt. eigenvalues --    5.41754   5.44304   5.47906   5.49094   5.50181
 Alpha virt. eigenvalues --    5.52748   5.54320   5.54665   5.58320   5.62202
 Alpha virt. eigenvalues --    5.72277   5.82540   5.88215   6.08275   6.83384
 Alpha virt. eigenvalues --    6.85515   6.86662   6.90391   6.91154   6.99180
 Alpha virt. eigenvalues --    7.04517   8.75547   9.00894   9.11445  10.14902
 Alpha virt. eigenvalues --   13.80172  13.80847  13.92022  13.96735  14.06753
 Alpha virt. eigenvalues --   20.74998  20.76742  20.88303  20.99822  21.00614
 Alpha virt. eigenvalues --   22.27585  35.06319  35.28948  35.39735  36.85742
 Alpha virt. eigenvalues --   36.92966  36.95746  36.99019  37.01002  37.01664
 Alpha virt. eigenvalues --   37.01995  37.03047  37.04854  37.07262  37.09242
 Alpha virt. eigenvalues --   37.20831  59.14638
          Condensed to atoms (all electrons):
              1          2          3          4          5          6
     1  P   13.683785   0.067826  -0.009671   0.382592  -0.014489   0.182109
     2  O    0.067826   9.073462  -0.082049  -0.049493  -0.002424  -0.016102
     3  O   -0.009671  -0.082049   9.136390  -0.039146   0.000690   0.004894
     4  N    0.382592  -0.049493  -0.039146   7.102682   0.369437  -0.040362
     5  H   -0.014489  -0.002424   0.000690   0.369437   0.424847  -0.002888
     6  S    0.182109  -0.016102   0.004894  -0.040362  -0.002888  16.115443
     7  C   -0.824224   0.017928   0.052209  -0.504353  -0.025685   0.070051
     8  H    0.013109  -0.000727  -0.000742  -0.021600  -0.002763  -0.000729
     9  H    0.013105   0.001466  -0.000430  -0.026600   0.002027   0.002471
    10  C   -0.100084  -0.005018  -0.006747   0.074095   0.001587  -0.219132
    11  H    0.011098  -0.000350  -0.001040   0.000912   0.000008  -0.046535
    12  O   -0.024781  -0.026519  -0.014786   0.000893  -0.000014   0.002756
    13  H    0.007513   0.001120   0.011357  -0.000243   0.000000  -0.000459
    14  H    0.010810   0.016844   0.001288  -0.000103  -0.000001  -0.000543
    15  O   -0.008089  -0.044596  -0.002993  -0.008124   0.006368  -0.002435
    16  H    0.022283   0.021151  -0.000634  -0.003221  -0.000756  -0.002521
    17  H    0.015419   0.003423  -0.000296   0.002272  -0.000444  -0.002530
    18  O   -0.004622  -0.001665  -0.042440  -0.000595   0.000015   0.000400
    19  H    0.011025  -0.000377   0.020509  -0.000305   0.000001  -0.003144
    20  H    0.005499  -0.000064   0.006359  -0.000180   0.000000  -0.003006
    21  C    0.270206   0.008654   0.003077   0.269510  -0.004465   0.108177
    22  H    0.008196  -0.000177  -0.000672   0.001441   0.000107   0.009377
    23  H   -0.000158   0.000534  -0.006326   0.005550  -0.000021  -0.016327
    24  I   -0.011108   0.000185   0.001060   0.012465   0.000105   0.010407
              7          8          9         10         11         12
     1  P   -0.824224   0.013109   0.013105  -0.100084   0.011098  -0.024781
     2  O    0.017928  -0.000727   0.001466  -0.005018  -0.000350  -0.026519
     3  O    0.052209  -0.000742  -0.000430  -0.006747  -0.001040  -0.014786
     4  N   -0.504353  -0.021600  -0.026600   0.074095   0.000912   0.000893
     5  H   -0.025685  -0.002763   0.002027   0.001587   0.000008  -0.000014
     6  S    0.070051  -0.000729   0.002471  -0.219132  -0.046535   0.002756
     7  C    7.811290   0.392533   0.362183  -0.085202  -0.001396   0.003569
     8  H    0.392533   0.437444  -0.009649   0.002025  -0.000002  -0.000003
     9  H    0.362183  -0.009649   0.437067  -0.001041  -0.000025  -0.000007
    10  C   -0.085202   0.002025  -0.001041   6.424256   0.394113   0.001224
    11  H   -0.001396  -0.000002  -0.000025   0.394113   0.441119  -0.000001
    12  O    0.003569  -0.000003  -0.000007   0.001224  -0.000001   8.066024
    13  H    0.000157   0.000000   0.000001   0.000033   0.000000   0.300160
    14  H   -0.000022   0.000000   0.000000  -0.000108   0.000000   0.295883
    15  O   -0.010391   0.000062  -0.000086  -0.002846   0.000003  -0.000192
    16  H    0.000388   0.000001   0.000001   0.000262   0.000000   0.000084
    17  H   -0.000321   0.000000   0.000000   0.000441   0.000000   0.000002
    18  O    0.002488   0.000000   0.000164  -0.034039   0.000809   0.000002
    19  H   -0.000159   0.000000  -0.000047   0.002900  -0.000002  -0.000134
    20  H    0.000312   0.000000  -0.000006   0.005702   0.000013  -0.000020
    21  C   -1.251951  -0.033209  -0.001653  -0.474642  -0.015916  -0.000668
    22  H   -0.008275   0.001681   0.000768  -0.022482   0.000872   0.000000
    23  H   -0.028155   0.000027   0.002532   0.410503  -0.008281  -0.000006
    24  I    0.067281   0.000657   0.000853   0.048822  -0.002135   0.000000
             13         14         15         16         17         18
     1  P    0.007513   0.010810  -0.008089   0.022283   0.015419  -0.004622
     2  O    0.001120   0.016844  -0.044596   0.021151   0.003423  -0.001665
     3  O    0.011357   0.001288  -0.002993  -0.000634  -0.000296  -0.042440
     4  N   -0.000243  -0.000103  -0.008124  -0.003221   0.002272  -0.000595
     5  H    0.000000  -0.000001   0.006368  -0.000756  -0.000444   0.000015
     6  S   -0.000459  -0.000543  -0.002435  -0.002521  -0.002530   0.000400
     7  C    0.000157  -0.000022  -0.010391   0.000388  -0.000321   0.002488
     8  H    0.000000   0.000000   0.000062   0.000001   0.000000   0.000000
     9  H    0.000001   0.000000  -0.000086   0.000001   0.000000   0.000164
    10  C    0.000033  -0.000108  -0.002846   0.000262   0.000441  -0.034039
    11  H    0.000000   0.000000   0.000003   0.000000   0.000000   0.000809
    12  O    0.300160   0.295883  -0.000192   0.000084   0.000002   0.000002
    13  H    0.398587  -0.015239   0.000004   0.000000   0.000000  -0.000138
    14  H   -0.015239   0.384271   0.000146   0.000037   0.000001  -0.000007
    15  O    0.000004   0.000146   8.130591   0.280982   0.295220  -0.000026
    16  H    0.000000   0.000037   0.280982   0.345621  -0.011899   0.000001
    17  H    0.000000   0.000001   0.295220  -0.011899   0.414067   0.000000
    18  O   -0.000138  -0.000007  -0.000026   0.000001   0.000000   8.135858
    19  H    0.000003   0.000001   0.000002   0.000000   0.000000   0.286448
    20  H    0.000000   0.000000   0.000000   0.000000   0.000000   0.298886
    21  C   -0.000061  -0.000016   0.004782  -0.001398  -0.001395   0.003392
    22  H    0.000000   0.000000  -0.000191   0.000001  -0.000014   0.000000
    23  H    0.000000   0.000000  -0.000016   0.000000   0.000000   0.007951
    24  I    0.000000   0.000000  -0.000028   0.000000   0.000000   0.000329
             19         20         21         22         23         24
     1  P    0.011025   0.005499   0.270206   0.008196  -0.000158  -0.011108
     2  O   -0.000377  -0.000064   0.008654  -0.000177   0.000534   0.000185
     3  O    0.020509   0.006359   0.003077  -0.000672  -0.006326   0.001060
     4  N   -0.000305  -0.000180   0.269510   0.001441   0.005550   0.012465
     5  H    0.000001   0.000000  -0.004465   0.000107  -0.000021   0.000105
     6  S   -0.003144  -0.003006   0.108177   0.009377  -0.016327   0.010407
     7  C   -0.000159   0.000312  -1.251951  -0.008275  -0.028155   0.067281
     8  H    0.000000   0.000000  -0.033209   0.001681   0.000027   0.000657
     9  H   -0.000047  -0.000006  -0.001653   0.000768   0.002532   0.000853
    10  C    0.002900   0.005702  -0.474642  -0.022482   0.410503   0.048822
    11  H   -0.000002   0.000013  -0.015916   0.000872  -0.008281  -0.002135
    12  O   -0.000134  -0.000020  -0.000668   0.000000  -0.000006   0.000000
    13  H    0.000003   0.000000  -0.000061   0.000000   0.000000   0.000000
    14  H    0.000001   0.000000  -0.000016   0.000000   0.000000   0.000000
    15  O    0.000002   0.000000   0.004782  -0.000191  -0.000016  -0.000028
    16  H    0.000000   0.000000  -0.001398   0.000001   0.000000   0.000000
    17  H    0.000000   0.000000  -0.001395  -0.000014   0.000000   0.000000
    18  O    0.286448   0.298886   0.003392   0.000000   0.007951   0.000329
    19  H    0.329940  -0.014238  -0.000783   0.000000  -0.000651  -0.000020
    20  H   -0.014238   0.419675  -0.000638   0.000000  -0.000674   0.000000
    21  C   -0.000783  -0.000638   7.314471   0.388048  -0.005405  -0.127257
    22  H    0.000000   0.000000   0.388048   0.428613   0.000432   0.001801
    23  H   -0.000651  -0.000674  -0.005405   0.000432   0.446778  -0.001654
    24  I   -0.000020   0.000000  -0.127257   0.001801  -0.001654  16.989724
 Mulliken atomic charges:
              1
     1  P    1.292653
     2  O   -0.983033
     3  O   -1.029862
     4  N   -0.527523
     5  H    0.248758
     6  S   -0.149370
     7  C   -0.040256
     8  H    0.221885
     9  H    0.216908
    10  C   -0.414622
    11  H    0.226739
    12  O   -0.603467
    13  H    0.297206
    14  H    0.306758
    15  O   -0.638144
    16  H    0.349618
    17  H    0.286055
    18  O   -0.653211
    19  H    0.369032
    20  H    0.282382
    21  C   -0.450861
    22  H    0.190475
    23  H    0.193368
    24  I    0.008513
 Sum of Mulliken charges=  -1.00000
 Atomic charges with hydrogens summed into heavy atoms:
              1
     1  P    1.292653
     2  O   -0.983033
     3  O   -1.029862
     4  N   -0.278765
     5  H    0.000000
     6  S   -0.149370
     7  C    0.398537
     8  H    0.000000
     9  H    0.000000
    10  C    0.005484
    11  H    0.000000
    12  O    0.000497
    13  H    0.000000
    14  H    0.000000
    15  O   -0.002471
    16  H    0.000000
    17  H    0.000000
    18  O   -0.001797
    19  H    0.000000
    20  H    0.000000
    21  C   -0.260387
    22  H    0.000000
    23  H    0.000000
    24  I    0.008513
 Sum of Mulliken charges=  -1.00000
 Electronic spatial extent (au):  <R**2>=  4499.2303
 Charge=    -1.0000 electrons
 Dipole moment (field-independent basis, Debye):
    X=    14.1144    Y=    -3.0992    Z=     3.4404  Tot=    14.8546
 Quadrupole moment (field-independent basis, Debye-Ang):
   XX=  -182.5092   YY=  -141.9619   ZZ=  -114.7405
   XY=    -1.1651   XZ=   -11.5855   YZ=     2.6869
 Traceless Quadrupole moment (field-independent basis, Debye-Ang):
   XX=   -36.1054   YY=     4.4420   ZZ=    31.6634
   XY=    -1.1651   XZ=   -11.5855   YZ=     2.6869
 Octapole moment (field-independent basis, Debye-Ang**2):
  XXX=   449.0616  YYY=    -5.5364  ZZZ=    -7.3274  XYY=   107.0107
  XXY=   -16.4209  XXZ=    47.7748  XZZ=    64.7785  YZZ=    -0.4208
  YYZ=    28.0762  XYZ=    -8.9636
 Hexadecapole moment (field-independent basis, Debye-Ang**3):
 XXXX= -6033.4397 YYYY= -1967.4260 ZZZZ=  -700.9561 XXXY=   267.9502
 XXXZ=  -314.5542 YYYX=  -175.1647 YYYZ=     7.0943 ZZZX=   -39.1637
 ZZZY=     2.5449 XXYY= -1206.0822 XXZZ=  -927.9507 YYZZ=  -304.1587
 XXYZ=    50.4530 YYXZ=   -75.9412 ZZXY=    13.9497
 N-N= 1.146908327428D+03 E-N=-5.632441566540D+03  KE= 1.359650576441D+03
 Calculating spin-rotation constants.
 Leave Link  601 at Sat Aug  2 19:05:30 2008, MaxMem= 1073741824 cpu:     142.7
 (Enter /usr/local/Chem-Apps/g03_d01/g03/l9999.exe)
 1\1\ SGI ALTIX 4700 1.6GHZ/9MB-MAGELLAN\SP\RB3LYP\Gen\C3H12I1N1O5P1S1(
 1-)\IK1\02-Aug-2008\0\\#p nmr=(giao,spinspin) b3lyp/Gen scf=tight inte
 gral=(grid=ultrafine) pseudo=read scrf=(pcm,solvent=water,read) guess=
 read geom=checkpoint\\Molecule 7, NMR and scalar couplings.\\-1,1\P,0,
 2.2854470694,0.1767611408,-0.0800644126\O,0,3.6800192575,0.8025997357,
 0.0752722671\O,0,2.0920312596,-1.3245371216,-0.3235348513\N,0,1.430268
 5145,1.0517553844,-1.2868558323\H,0,1.6709110786,2.04167858,-1.2360027
 028\S,0,1.1690226451,0.7410186546,1.7386915926\C,0,-0.0040300373,0.800
 8821906,-1.4335219477\H,0,-0.3660570737,1.3536611968,-2.3098291105\H,0
 ,-0.1488811106,-0.2695441692,-1.6279428492\C,0,-0.5354782771,0.3975288
 269,1.0663863122\H,0,-1.2205893053,0.6817359328,1.8721325838\O,0,5.150
 1692769,-1.7583455634,-0.2410896894\H,0,4.2398571436,-2.0752227547,-0.
 3502534043\H,0,4.9897356351,-0.807732805,-0.1062885712\O,0,3.296454881
 5,3.5151651683,-0.2394948671\H,0,3.5761814963,2.5740992925,-0.12542526
 51\H,0,2.9121799401,3.7333107385,0.6176287063\O,0,0.3527043293,-3.0525
 567201,0.9090728319\H,0,0.9870065604,-2.4629178233,0.4360912003\H,0,0.
 7001535766,-3.0726617711,1.8076400787\C,0,-0.8109596007,1.2120653182,-
 0.1894548418\H,0,-0.7164215973,2.2857794238,0.0069603632\H,0,-0.637054
 1957,-0.6784175415,0.8782302598\I,0,-3.0050478469,1.010720036,-0.69961
 28608\\Version=IA64L-G03RevD.01\State=1-A\HF=-1403.9244857\RMSD=3.195e
 -09\Thermal=0.\Dipole=-5.3235913,2.3636639,0.4770233\PG=C01 [X(C3H12I1
 N1O5P1S1)]\\@


 I DON'T EXACTLY UNDERSTAND WHAT YOU ARE SAYING,
 BUT YOU ARE ABSOLUTELY RIGHT.
     M.S.GORDON, IN A NDSU FACULTY MEETING
 Job cpu time:  0 days  1 hours 26 minutes 23.3 seconds.
 File lengths (MBytes):  RWF=   1286 Int=      0 D2E=      0 Chk=     23 Scr=      1
 Normal termination of Gaussian 03 at Sat Aug  2 19:05:31 2008.
