 Entering Gaussian System, Link 0=/usr/local/Chem-Apps/g03_d01/g03/g03
 Initial command:
 /usr/local/Chem-Apps/g03_d01/g03/l1.exe /scratch/LSF_66999/Gau-5181.inp -scrdir=/scratch/LSF_66999/
 Entering Link 1 = /usr/local/Chem-Apps/g03_d01/g03/l1.exe PID=      5182.
  
 Copyright (c) 1988,1990,1992,1993,1995,1998,2003,2004, Gaussian, Inc.
                  All Rights Reserved.
  
 This is the Gaussian(R) 03 program.  It is based on the
 the Gaussian(R) 98 system (copyright 1998, Gaussian, Inc.),
 the Gaussian(R) 94 system (copyright 1995, Gaussian, Inc.),
 the Gaussian 92(TM) system (copyright 1992, Gaussian, Inc.),
 the Gaussian 90(TM) system (copyright 1990, Gaussian, Inc.),
 the Gaussian 88(TM) system (copyright 1988, Gaussian, Inc.),
 the Gaussian 86(TM) system (copyright 1986, Carnegie Mellon
 University), and the Gaussian 82(TM) system (copyright 1983,
 Carnegie Mellon University). Gaussian is a federally registered
 trademark of Gaussian, Inc.
  
 This software contains proprietary and confidential information,
 including trade secrets, belonging to Gaussian, Inc.
  
 This software is provided under written license and may be
 used, copied, transmitted, or stored only in accord with that
 written license.
  
 The following legend is applicable only to US Government
 contracts under FAR:
  
                    RESTRICTED RIGHTS LEGEND
  
 Use, reproduction and disclosure by the US Government is
 subject to restrictions as set forth in subparagraphs (a)
 and (c) of the Commercial Computer Software - Restricted
 Rights clause in FAR 52.227-19.
  
 Gaussian, Inc.
 340 Quinnipiac St., Bldg. 40, Wallingford CT 06492
  
  
 ---------------------------------------------------------------
 Warning -- This program may not be used in any manner that
 competes with the business of Gaussian, Inc. or will provide
 assistance to any competitor of Gaussian, Inc.  The licensee
 of this program is prohibited from giving any competitor of
 Gaussian, Inc. access to this program.  By using this program,
 the user acknowledges that Gaussian, Inc. is engaged in the
 business of creating and licensing software in the field of
 computational chemistry and represents and warrants to the
 licensee that it is not a competitor of Gaussian, Inc. and that
 it will not use this program in any manner prohibited above.
 ---------------------------------------------------------------
  

 Cite this work as:
 Gaussian 03, Revision D.01,
 M. J. Frisch, G. W. Trucks, H. B. Schlegel, G. E. Scuseria, 
 M. A. Robb, J. R. Cheeseman, J. A. Montgomery, Jr., T. Vreven, 
 K. N. Kudin, J. C. Burant, J. M. Millam, S. S. Iyengar, J. Tomasi, 
 V. Barone, B. Mennucci, M. Cossi, G. Scalmani, N. Rega, 
 G. A. Petersson, H. Nakatsuji, M. Hada, M. Ehara, K. Toyota, 
 R. Fukuda, J. Hasegawa, M. Ishida, T. Nakajima, Y. Honda, O. Kitao, 
 H. Nakai, M. Klene, X. Li, J. E. Knox, H. P. Hratchian, J. B. Cross, 
 V. Bakken, C. Adamo, J. Jaramillo, R. Gomperts, R. E. Stratmann, 
 O. Yazyev, A. J. Austin, R. Cammi, C. Pomelli, J. W. Ochterski, 
 P. Y. Ayala, K. Morokuma, G. A. Voth, P. Salvador, J. J. Dannenberg, 
 V. G. Zakrzewski, S. Dapprich, A. D. Daniels, M. C. Strain, 
 O. Farkas, D. K. Malick, A. D. Rabuck, K. Raghavachari, 
 J. B. Foresman, J. V. Ortiz, Q. Cui, A. G. Baboul, S. Clifford, 
 J. Cioslowski, B. B. Stefanov, G. Liu, A. Liashenko, P. Piskorz, 
 I. Komaromi, R. L. Martin, D. J. Fox, T. Keith, M. A. Al-Laham, 
 C. Y. Peng, A. Nanayakkara, M. Challacombe, P. M. W. Gill, 
 B. Johnson, W. Chen, M. W. Wong, C. Gonzalez, and J. A. Pople, 
 Gaussian, Inc., Wallingford CT, 2004.
 
 ******************************************
 Gaussian 03:  IA64L-G03RevD.01 13-Oct-2005
                28-Jul-2008 
 ******************************************
 %Mem=4GB
 %NProcShared=8
 Will use up to    8 processors via shared memory.
 %Chk=molecule_5.chk
 Default route:  MaxDisk=64GB Cachesize=589840
 ----------------------------------------------------------------------
 #p opt=gdiis b3lyp/Gen scf=tight pseudo=read geom=checkpoint guess=rea
 d
 ----------------------------------------------------------------------
 1/4=589840,14=-1,18=20,19=11,26=3,29=2,38=1/1,3;
 2/4=589840,9=110,40=1/2;
 3/4=589840,5=7,11=2,16=1,17=8,25=1,30=1,74=-5/1,2,3;
 4/4=589840,5=1/1;
 5/4=589840,5=2,32=2,38=6/2;
 6/4=589840,7=2,8=2,9=2,10=2,28=1/1;
 7/4=589840/1,2,3,16;
 1/4=589840,14=-1,18=20,19=11/3(3);
 2/4=589840,9=110/2;
 6/4=589840,7=2,8=2,9=2,10=2,19=2,28=1/1;
 99/4=589840/99;
 2/4=589840,9=110/2;
 3/4=589840,5=7,6=1,11=2,16=1,17=8,25=1,30=1,74=-5,82=7/1,2,3;
 4/4=589840,5=5,16=3/1;
 5/4=589840,5=2,32=2,38=5/2;
 7/4=589840/1,2,3,16;
 1/4=589840,14=-1,18=20,19=11/3(-5);
 2/4=589840,9=110/2;
 6/4=589840,7=2,8=2,9=2,10=2,19=2,28=1/1;
 99/4=589840,9=1/99;
 Leave Link    1 at Mon Jul 28 16:10:37 2008, MaxMem=  536870912 cpu:       1.2
 (Enter /usr/local/Chem-Apps/g03_d01/g03/l101.exe)
 ---------------------
 Molecule 5, geometry.
 ---------------------
 Redundant internal coordinates taken from checkpoint file:
 molecule_5.chk
 Charge = -1 Multiplicity = 1
 P,0,-2.1227691025,-0.20805864,0.1086601268
 O,0,-3.2042835029,-1.2660826489,0.3672934052
 O,0,-2.5030500251,1.2689247224,-0.0484790546
 N,0,-1.0710673972,-0.7162130584,-1.16045895
 H,0,-1.0298166596,-1.736756374,-1.1544270137
 S,0,-0.53001974,-0.3526757044,1.6803237622
 C,0,0.2466762901,-0.1092891357,-0.9995211863
 H,0,0.9355428677,-0.5271142382,-1.7441970045
 H,0,0.1529011845,0.9667316413,-1.1958120295
 C,0,0.8515130176,-0.3040917566,0.4254747711
 H,0,1.3699377888,-1.2698909573,0.488241433
 C,0,1.781209489,0.8218158613,0.8324562769
 H,0,1.3228572007,1.8054479359,0.685838802
 H,0,2.1697070388,0.7078430407,1.8462500297
 I,0,3.6600786242,0.857076027,-0.4072090516
 O,0,-5.4402516927,0.7103332644,0.4589865898
 H,0,-4.6751254254,1.2746165594,0.2603882866
 H,0,-5.0065945315,-0.1593532778,0.4952505112
 O,0,-1.9260316502,-3.7009555867,0.1244109578
 H,0,-2.5004611246,-2.9043141248,0.2278087586
 H,0,-1.3867746964,-3.6807631104,0.9238784206
 O,0,-0.7107502974,3.2948266491,0.4560691261
 H,0,-1.3661858943,2.5903409415,0.231148893
 H,0,-0.8074345317,3.3814605102,1.4110271396
 Recover connectivity data from disk.
                    Isotopes and Nuclear Properties:
 (Nuclear quadrupole moments (NQMom) in fm**2, nuclear magnetic moments (NMagM)
  in nuclear magnetons)

  Atom         1           2           3           4           5           6           7           8           9          10
 IAtWgt=          31          16          16          14           1          32          12           1           1          12
 AtmWgt=  30.9737634  15.9949146  15.9949146  14.0030740   1.0078250  31.9720718  12.0000000   1.0078250   1.0078250  12.0000000
 NucSpn=           1           0           0           2           1           0           0           1           1           0
 AtZEff= -12.9400000  -5.6000000  -5.6000000  -4.5500000  -1.0000000 -13.6000000  -3.6000000  -1.0000000  -1.0000000  -3.6000000
 NQMom=    0.0000000   0.0000000   0.0000000   2.0440000   0.0000000   0.0000000   0.0000000   0.0000000   0.0000000   0.0000000
 NMagM=    1.1316000   0.0000000   0.0000000   0.4037610   2.7928460   0.0000000   0.0000000   2.7928460   2.7928460   0.0000000

  Atom        11          12          13          14          15          16          17          18          19          20
 IAtWgt=           1          12           1           1         127          16           1           1          16           1
 AtmWgt=   1.0078250  12.0000000   1.0078250   1.0078250 126.9004000  15.9949146   1.0078250   1.0078250  15.9949146   1.0078250
 NucSpn=           1           0           1           1           5           0           1           1           0           1
 AtZEff=  -1.0000000  -3.6000000  -1.0000000  -1.0000000************  -5.6000000  -1.0000000  -1.0000000  -5.6000000  -1.0000000
 NQMom=    0.0000000   0.0000000   0.0000000   0.0000000 -71.0000000   0.0000000   0.0000000   0.0000000   0.0000000   0.0000000
 NMagM=    2.7928460   0.0000000   2.7928460   2.7928460   2.8132800   0.0000000   2.7928460   2.7928460   0.0000000   2.7928460

  Atom        21          22          23          24
 IAtWgt=           1          16           1           1
 AtmWgt=   1.0078250  15.9949146   1.0078250   1.0078250
 NucSpn=           1           0           1           1
 AtZEff=  -1.0000000  -5.6000000  -1.0000000  -1.0000000
 NQMom=    0.0000000   0.0000000   0.0000000   0.0000000
 NMagM=    2.7928460   0.0000000   2.7928460   2.7928460
 Leave Link  101 at Mon Jul 28 16:10:37 2008, MaxMem=  536870912 cpu:       0.3
 (Enter /usr/local/Chem-Apps/g03_d01/g03/l103.exe)

 GradGradGradGradGradGradGradGradGradGradGradGradGradGradGradGradGradGrad
 Berny optimization.
 Initialization pass.
                           ----------------------------
                           !    Initial Parameters    !
                           ! (Angstroms and Degrees)  !
 --------------------------                            --------------------------
 ! Name  Definition              Value          Derivative Info.                !
 --------------------------------------------------------------------------------
 ! R1    R(1,2)                  1.5349         estimate D2E/DX2                !
 ! R2    R(1,3)                  1.5332         estimate D2E/DX2                !
 ! R3    R(1,4)                  1.7248         estimate D2E/DX2                !
 ! R4    R(1,6)                  2.2423         estimate D2E/DX2                !
 ! R5    R(2,18)                 2.1189         estimate D2E/DX2                !
 ! R6    R(2,20)                 1.7885         estimate D2E/DX2                !
 ! R7    R(3,17)                 2.1939         estimate D2E/DX2                !
 ! R8    R(3,23)                 1.7654         estimate D2E/DX2                !
 ! R9    R(4,5)                  1.0214         estimate D2E/DX2                !
 ! R10   R(4,7)                  1.4597         estimate D2E/DX2                !
 ! R11   R(6,10)                 1.867          estimate D2E/DX2                !
 ! R12   R(7,8)                  1.0971         estimate D2E/DX2                !
 ! R13   R(7,9)                  1.0978         estimate D2E/DX2                !
 ! R14   R(7,10)                 1.5603         estimate D2E/DX2                !
 ! R15   R(10,11)                1.0979         estimate D2E/DX2                !
 ! R16   R(10,12)                1.5158         estimate D2E/DX2                !
 ! R17   R(12,13)                1.095          estimate D2E/DX2                !
 ! R18   R(12,14)                1.0916         estimate D2E/DX2                !
 ! R19   R(12,15)                2.2513         estimate D2E/DX2                !
 ! R20   R(16,17)                0.9712         estimate D2E/DX2                !
 ! R21   R(16,18)                0.9725         estimate D2E/DX2                !
 ! R22   R(19,20)                0.9876         estimate D2E/DX2                !
 ! R23   R(19,21)                0.9645         estimate D2E/DX2                !
 ! R24   R(22,23)                0.9882         estimate D2E/DX2                !
 ! R25   R(22,24)                0.9637         estimate D2E/DX2                !
 ! A1    A(2,1,3)              120.4326         estimate D2E/DX2                !
 ! A2    A(2,1,4)              110.5202         estimate D2E/DX2                !
 ! A3    A(2,1,6)              109.7512         estimate D2E/DX2                !
 ! A4    A(3,1,4)              111.0775         estimate D2E/DX2                !
 ! A5    A(3,1,6)              108.0679         estimate D2E/DX2                !
 ! A6    A(4,1,6)               93.6475         estimate D2E/DX2                !
 ! A7    A(1,2,18)             104.4467         estimate D2E/DX2                !
 ! A8    A(1,2,20)             109.936          estimate D2E/DX2                !
 ! A9    A(18,2,20)            144.875          estimate D2E/DX2                !
 ! A10   A(1,3,17)             103.5106         estimate D2E/DX2                !
 ! A11   A(1,3,23)             123.0302         estimate D2E/DX2                !
 ! A12   A(17,3,23)            127.8283         estimate D2E/DX2                !
 ! A13   A(1,4,5)              108.3397         estimate D2E/DX2                !
 ! A14   A(1,4,7)              110.2936         estimate D2E/DX2                !
 ! A15   A(5,4,7)              112.2304         estimate D2E/DX2                !
 ! A16   A(1,6,10)              93.029          estimate D2E/DX2                !
 ! A17   A(4,7,8)              109.4901         estimate D2E/DX2                !
 ! A18   A(4,7,9)              108.1023         estimate D2E/DX2                !
 ! A19   A(4,7,10)             113.4994         estimate D2E/DX2                !
 ! A20   A(8,7,9)              107.7917         estimate D2E/DX2                !
 ! A21   A(8,7,10)             109.206          estimate D2E/DX2                !
 ! A22   A(9,7,10)             108.5901         estimate D2E/DX2                !
 ! A23   A(6,10,7)             109.2841         estimate D2E/DX2                !
 ! A24   A(6,10,11)            106.7436         estimate D2E/DX2                !
 ! A25   A(6,10,12)            107.0212         estimate D2E/DX2                !
 ! A26   A(7,10,11)            110.1867         estimate D2E/DX2                !
 ! A27   A(7,10,12)            112.9696         estimate D2E/DX2                !
 ! A28   A(11,10,12)           110.3914         estimate D2E/DX2                !
 ! A29   A(10,12,13)           111.9957         estimate D2E/DX2                !
 ! A30   A(10,12,14)           112.9589         estimate D2E/DX2                !
 ! A31   A(10,12,15)           112.0658         estimate D2E/DX2                !
 ! A32   A(13,12,14)           111.5361         estimate D2E/DX2                !
 ! A33   A(13,12,15)           105.1612         estimate D2E/DX2                !
 ! A34   A(14,12,15)           102.4744         estimate D2E/DX2                !
 ! A35   A(17,16,18)           100.1317         estimate D2E/DX2                !
 ! A36   A(3,17,16)            143.826          estimate D2E/DX2                !
 ! A37   A(2,18,16)            147.5827         estimate D2E/DX2                !
 ! A38   A(20,19,21)           102.7986         estimate D2E/DX2                !
 ! A39   A(2,20,19)            167.4143         estimate D2E/DX2                !
 ! A40   A(23,22,24)           102.8902         estimate D2E/DX2                !
 ! A41   A(3,23,22)            175.4041         estimate D2E/DX2                !
 ! D1    D(3,1,2,18)            -2.2573         estimate D2E/DX2                !
 ! D2    D(3,1,2,20)           170.4395         estimate D2E/DX2                !
 ! D3    D(4,1,2,18)          -133.9574         estimate D2E/DX2                !
 ! D4    D(4,1,2,20)            38.7393         estimate D2E/DX2                !
 ! D5    D(6,1,2,18)           124.1215         estimate D2E/DX2                !
 ! D6    D(6,1,2,20)           -63.1818         estimate D2E/DX2                !
 ! D7    D(2,1,3,17)             1.9935         estimate D2E/DX2                !
 ! D8    D(2,1,3,23)           157.3008         estimate D2E/DX2                !
 ! D9    D(4,1,3,17)           133.455          estimate D2E/DX2                !
 ! D10   D(4,1,3,23)           -71.2377         estimate D2E/DX2                !
 ! D11   D(6,1,3,17)          -125.1571         estimate D2E/DX2                !
 ! D12   D(6,1,3,23)            30.1502         estimate D2E/DX2                !
 ! D13   D(2,1,4,5)            -29.7822         estimate D2E/DX2                !
 ! D14   D(2,1,4,7)           -152.9801         estimate D2E/DX2                !
 ! D15   D(3,1,4,5)           -166.1577         estimate D2E/DX2                !
 ! D16   D(3,1,4,7)             70.6444         estimate D2E/DX2                !
 ! D17   D(6,1,4,5)             82.8878         estimate D2E/DX2                !
 ! D18   D(6,1,4,7)            -40.3101         estimate D2E/DX2                !
 ! D19   D(2,1,6,10)           132.4811         estimate D2E/DX2                !
 ! D20   D(3,1,6,10)           -94.4217         estimate D2E/DX2                !
 ! D21   D(4,1,6,10)            19.1469         estimate D2E/DX2                !
 ! D22   D(1,2,18,16)            0.3614         estimate D2E/DX2                !
 ! D23   D(20,2,18,16)        -167.651          estimate D2E/DX2                !
 ! D24   D(1,2,20,19)            4.4543         estimate D2E/DX2                !
 ! D25   D(18,2,20,19)         172.1001         estimate D2E/DX2                !
 ! D26   D(1,3,17,16)            0.8584         estimate D2E/DX2                !
 ! D27   D(23,3,17,16)        -152.8193         estimate D2E/DX2                !
 ! D28   D(1,3,23,22)          -48.6257         estimate D2E/DX2                !
 ! D29   D(17,3,23,22)         100.4262         estimate D2E/DX2                !
 ! D30   D(1,4,7,8)            173.6582         estimate D2E/DX2                !
 ! D31   D(1,4,7,9)            -69.167          estimate D2E/DX2                !
 ! D32   D(1,4,7,10)            51.3545         estimate D2E/DX2                !
 ! D33   D(5,4,7,8)             52.7578         estimate D2E/DX2                !
 ! D34   D(5,4,7,9)            169.9326         estimate D2E/DX2                !
 ! D35   D(5,4,7,10)           -69.5458         estimate D2E/DX2                !
 ! D36   D(1,6,10,7)             3.2941         estimate D2E/DX2                !
 ! D37   D(1,6,10,11)         -115.8521         estimate D2E/DX2                !
 ! D38   D(1,6,10,12)          125.9431         estimate D2E/DX2                !
 ! D39   D(4,7,10,6)           -31.7065         estimate D2E/DX2                !
 ! D40   D(4,7,10,11)           85.2832         estimate D2E/DX2                !
 ! D41   D(4,7,10,12)         -150.7275         estimate D2E/DX2                !
 ! D42   D(8,7,10,6)          -154.1675         estimate D2E/DX2                !
 ! D43   D(8,7,10,11)          -37.1779         estimate D2E/DX2                !
 ! D44   D(8,7,10,12)           86.8115         estimate D2E/DX2                !
 ! D45   D(9,7,10,6)            88.5392         estimate D2E/DX2                !
 ! D46   D(9,7,10,11)         -154.4712         estimate D2E/DX2                !
 ! D47   D(9,7,10,12)          -30.4819         estimate D2E/DX2                !
 ! D48   D(6,10,12,13)         -69.8094         estimate D2E/DX2                !
 ! D49   D(6,10,12,14)          57.1382         estimate D2E/DX2                !
 ! D50   D(6,10,12,15)         172.2794         estimate D2E/DX2                !
 ! D51   D(7,10,12,13)          50.514          estimate D2E/DX2                !
 ! D52   D(7,10,12,14)         177.4616         estimate D2E/DX2                !
 ! D53   D(7,10,12,15)         -67.3972         estimate D2E/DX2                !
 ! D54   D(11,10,12,13)        174.3908         estimate D2E/DX2                !
 ! D55   D(11,10,12,14)        -58.6616         estimate D2E/DX2                !
 ! D56   D(11,10,12,15)         56.4796         estimate D2E/DX2                !
 ! D57   D(18,16,17,3)          -2.3302         estimate D2E/DX2                !
 ! D58   D(17,16,18,2)           1.7326         estimate D2E/DX2                !
 ! D59   D(21,19,20,2)          67.8816         estimate D2E/DX2                !
 ! D60   D(24,22,23,3)         -36.5609         estimate D2E/DX2                !
 --------------------------------------------------------------------------------
 Trust Radius=3.00D-01 FncErr=1.00D-07 GrdErr=1.00D-06
 Number of steps in this run= 136 maximum allowed number of steps= 144.
 GradGradGradGradGradGradGradGradGradGradGradGradGradGradGradGradGradGrad

 Leave Link  103 at Mon Jul 28 16:10:38 2008, MaxMem=  536870912 cpu:       0.2
 (Enter /usr/local/Chem-Apps/g03_d01/g03/l202.exe)
                          Input orientation:                          
 ---------------------------------------------------------------------
 Center     Atomic     Atomic              Coordinates (Angstroms)
 Number     Number      Type              X           Y           Z
 ---------------------------------------------------------------------
    1         15             0       -2.122769   -0.208059    0.108660
    2          8             0       -3.204284   -1.266083    0.367293
    3          8             0       -2.503050    1.268925   -0.048479
    4          7             0       -1.071067   -0.716213   -1.160459
    5          1             0       -1.029817   -1.736756   -1.154427
    6         16             0       -0.530020   -0.352676    1.680324
    7          6             0        0.246676   -0.109289   -0.999521
    8          1             0        0.935543   -0.527114   -1.744197
    9          1             0        0.152901    0.966732   -1.195812
   10          6             0        0.851513   -0.304092    0.425475
   11          1             0        1.369938   -1.269891    0.488241
   12          6             0        1.781209    0.821816    0.832456
   13          1             0        1.322857    1.805448    0.685839
   14          1             0        2.169707    0.707843    1.846250
   15         53             0        3.660079    0.857076   -0.407209
   16          8             0       -5.440252    0.710333    0.458987
   17          1             0       -4.675125    1.274617    0.260388
   18          1             0       -5.006595   -0.159353    0.495251
   19          8             0       -1.926032   -3.700956    0.124411
   20          1             0       -2.500461   -2.904314    0.227809
   21          1             0       -1.386775   -3.680763    0.923878
   22          8             0       -0.710750    3.294827    0.456069
   23          1             0       -1.366186    2.590341    0.231149
   24          1             0       -0.807435    3.381461    1.411027
 ---------------------------------------------------------------------
                    Distance matrix (angstroms):
                    1          2          3          4          5
     1  P    0.000000
     2  O    1.534920   0.000000
     3  O    1.533227   2.662866   0.000000
     4  N    1.724807   2.680857   2.688465   0.000000
     5  H    2.264255   2.695454   3.525288   1.021394   0.000000
     6  S    2.242296   3.116095   3.084023   2.914608   3.193946
     7  C    2.617650   3.887863   3.219464   1.459694   2.074146
     8  H    3.590007   4.705595   4.233809   2.098331   2.381953
     9  H    2.874101   4.324286   2.908912   2.081262   2.951166
    10  C    2.992649   4.168728   3.735252   2.526132   2.843944
    11  H    3.670228   4.575822   4.661940   2.997212   2.945360
    12  C    4.101898   5.425020   4.396684   3.804304   4.289040
    13  H    4.032330   5.480034   3.932511   3.936809   4.633451
    14  H    4.720535   5.912992   5.073408   4.644443   5.021661
    15  I    5.902708   7.226834   6.187282   5.042456   5.411231
    16  O    3.460038   2.985663   3.032606   4.873131   5.295591
    17  H    2.955651   2.937679   2.193933   4.355622   4.935417
    18  H    2.910030   2.118855   2.933148   4.305792   4.585237
    19  O    3.498469   2.760711   5.006251   3.360140   2.509324
    20  H    2.725186   1.788470   4.182375   2.959432   2.331644
    21  H    3.642244   3.073078   5.166329   3.637677   2.868089
    22  O    3.792716   5.198796   2.751579   4.339520   5.292667
    23  H    2.901459   4.274242   1.765444   3.599579   4.555956
    24  H    4.038677   5.332347   3.077024   4.844891   5.729498
                    6          7          8          9         10
     6  S    0.000000
     7  C    2.800725   0.000000
     8  H    3.729027   1.097113   0.000000
     9  H    3.237186   1.097791   1.773367   0.000000
    10  C    1.866987   1.560253   2.182722   2.175229   0.000000
    11  H    2.423259   2.195940   2.392530   3.052818   1.097940
    12  C    2.727653   2.564740   3.028846   2.605045   1.515796
    13  H    3.013246   2.768541   3.390565   2.369146   2.177180
    14  H    2.905298   3.530463   3.992442   3.659053   2.186378
    15  I    4.835103   3.596667   3.335658   3.596417   3.151145
    16  O    5.170303   5.927915   6.858283   5.838447   6.373106
    17  H    4.673992   5.265615   6.224483   5.052242   5.750070
    18  H    4.634813   5.462024   6.360768   5.545102   5.860311
    19  O    3.947239   4.345567   4.664073   5.277524   4.398190
    20  H    3.536000   4.106734   4.620174   4.904286   4.246876
    21  H    3.518864   4.372991   4.738912   5.335063   4.081697
    22  O    3.851719   3.824057   4.707301   2.982387   3.923495
    23  H    3.385355   3.376963   4.349537   2.641960   3.651533
    24  H    3.754098   4.371181   5.316988   3.680865   4.160134
                   11         12         13         14         15
    11  H    0.000000
    12  C    2.159367   0.000000
    13  H    3.082040   1.095041   0.000000
    14  H    2.528883   1.091649   1.807884   0.000000
    15  I    3.251241   2.251258   2.748957   2.705837   0.000000
    16  O    7.092307   7.231971   6.854953   7.735372   9.142639
    17  H    6.562715   6.497426   6.036438   7.048966   8.372315
    18  H    6.472519   6.866636   6.630138   7.353675   8.772616
    19  O    4.111674   5.890707   6.418018   6.259178   7.229308
    20  H    4.209412   5.708095   6.083536   6.121887   7.245934
    21  H    3.688028   5.506151   6.123502   5.723565   6.916249
    22  O    5.016667   3.530908   2.531127   4.113651   5.078585
    23  H    4.738550   3.659966   2.837913   4.319131   5.354908
    24  H    5.218003   3.686137   2.747336   4.025049   5.444003
                   16         17         18         19         20
    16  O    0.000000
    17  H    0.971224   0.000000
    18  H    0.972486   1.490403   0.000000
    19  O    5.649881   5.686152   4.708539   0.000000
    20  H    4.664921   4.711018   3.726532   0.987572   0.000000
    21  H    5.994041   5.984084   5.068249   0.964549   1.525675
    22  O    5.389601   4.453741   5.512456   7.108296   6.456355
    23  H    4.492700   3.561048   4.569808   6.317059   5.610510
    24  H    5.431786   4.552120   5.568568   7.284728   6.616442
                   21         22         23         24
    21  H    0.000000
    22  O    7.023867   0.000000
    23  H    6.309282   0.988173   0.000000
    24  H    7.102672   0.963742   1.526495   0.000000
 Stoichiometry    C3H12INO5PS(1-)
 Framework group  C1[X(C3H12INO5PS)]
 Deg. of freedom    66
 Full point group                 C1
 Largest Abelian subgroup         C1      NOp   1
 Largest concise Abelian subgroup C1      NOp   1
                         Standard orientation:                         
 ---------------------------------------------------------------------
 Center     Atomic     Atomic              Coordinates (Angstroms)
 Number     Number      Type              X           Y           Z
 ---------------------------------------------------------------------
    1         15             0        2.416838   -0.019167   -0.206830
    2          8             0        3.701633    0.798274   -0.014285
    3          8             0        2.488474   -1.527661   -0.471594
    4          7             0        1.368111    0.759229   -1.333432
    5          1             0        1.525293    1.766800   -1.275624
    6         16             0        1.037251    0.317585    1.528459
    7          6             0       -0.020828    0.400586   -1.063382
    8          1             0       -0.683189    0.988039   -1.711328
    9          1             0       -0.155344   -0.658694   -1.318288
   10          6             0       -0.439685    0.611150    0.424775
   11          1             0       -0.753763    1.650701    0.586518
   12          6             0       -1.526574   -0.344992    0.874332
   13          1             0       -1.282510   -1.385261    0.634774
   14          1             0       -1.788483   -0.227145    1.927524
   15         53             0       -3.485244    0.053773   -0.161409
   16          8             0        5.512762   -1.563594   -0.250023
   17          1             0        4.637895   -1.960313   -0.393192
   18          1             0        5.260433   -0.632378   -0.127983
   19          8             0        2.900087    3.440055   -0.008003
   20          1             0        3.317160    2.544890   -0.002693
   21          1             0        2.444852    3.468723    0.841876
   22          8             0        0.394653   -3.210760    0.123617
   23          1             0        1.149527   -2.628257   -0.135883
   24          1             0        0.562360   -3.376526    1.058066
 ---------------------------------------------------------------------
 Rotational constants (GHZ):      0.7684675      0.1709463      0.1521909
 Leave Link  202 at Mon Jul 28 16:10:38 2008, MaxMem=  536870912 cpu:       0.2
 (Enter /usr/local/Chem-Apps/g03_d01/g03/l301.exe)
 General basis read from cards:  (5D, 7F)
 Centers:   7 10 12  5  8  9 11 13 14 17 18 20 21 23 24  4  2  3 16 19
 Centers:  22  1  6
 aug-cc-pVDZ
 ****
 Centers:  15
 S 1 1.00
     Exponent=  6.8030000000D-01 Coefficients=  1.0000000000D+00
 S 1 1.00
     Exponent=  5.2080000000D-01 Coefficients=  1.0000000000D+00
 S 1 1.00
     Exponent=  1.1430000000D-01 Coefficients=  1.0000000000D+00
 P 1 1.00
     Exponent=  1.1250000000D+00 Coefficients=  1.0000000000D+00
 P 1 1.00
     Exponent=  3.5080000000D-01 Coefficients=  1.0000000000D+00
 P 1 1.00
     Exponent=  1.1660000000D-01 Coefficients=  1.0000000000D+00
 D 1 1.00
     Exponent=  3.9502000000D+00 Coefficients=  1.0000000000D+00
 D 1 1.00
     Exponent=  2.5742000000D+00 Coefficients=  1.0000000000D+00
 D 1 1.00
     Exponent=  1.3071000000D+00 Coefficients=  1.0000000000D+00
 D 1 1.00
     Exponent=  5.1160000000D-01 Coefficients=  1.0000000000D+00
 ****
 ===================================================================================================================================
 Pseudopotential Parameters 
 ===================================================================================================================================
  Center     Atomic      Valence      Angular      Power                                                       Coordinates
  Number     Number     Electrons     Momentum     of R      Exponent        Coefficient                X           Y           Z
 ===================================================================================================================================
    1         15                                                                                    4.567162 -0.036221 -0.390852
                                   No pseudopotential on this center.
    2          8                                                                                    6.995072  1.508518 -0.026994
                                   No pseudopotential on this center.
    3          8                                                                                    4.702535 -2.886861 -0.891183
                                   No pseudopotential on this center.
    4          7                                                                                    2.585356  1.434735 -2.519821
                                   No pseudopotential on this center.
    5          1                                                                                    2.882386  3.338768 -2.410580
                                   No pseudopotential on this center.
    6         16                                                                                    1.960121  0.600150  2.888369
                                   No pseudopotential on this center.
    7          6                                                                                   -0.039360  0.756997 -2.009501
                                   No pseudopotential on this center.
    8          1                                                                                   -1.291040  1.867123 -3.233942
                                   No pseudopotential on this center.
    9          1                                                                                   -0.293558 -1.244751 -2.491203
                                   No pseudopotential on this center.
   10          6                                                                                   -0.830884  1.154907  0.802708
                                   No pseudopotential on this center.
   11          1                                                                                   -1.424405  3.119374  1.108357
                                   No pseudopotential on this center.
   12          6                                                                                   -2.884807 -0.651940  1.652247
                                   No pseudopotential on this center.
   13          1                                                                                   -2.423592 -2.617764  1.199548
                                   No pseudopotential on this center.
   14          1                                                                                   -3.379743 -0.429241  3.642492
                                   No pseudopotential on this center.
   15         53           17                                                                      -6.586157  0.101617 -0.305019
                                      F and up 
                                                     2        2.0065999       -2.60678697
                                                     2        5.4120002      -15.30154037
                                                     2       20.8878994      -73.32185364
                                                     1       63.8210983      -23.43061638
                                      S - F
                                                     2        1.5301000     -144.29801941
                                                     2        1.8566001      252.49822998
                                                     2        2.5843000     -200.15640259
                                                     2        3.7542000       85.98131561
                                                     1        1.1387000       32.24239349
                                                     0       12.4701004        6.45168209
                                      P - F
                                                     2        0.9111000       32.43734360
                                                     2        1.0657999     -101.57602692
                                                     2        1.3899000      169.25859070
                                                     2        1.7958000     -105.27653503
                                                     1        2.5479000       12.12060356
                                                     0        1.1725000        6.45733500
                                      D - F
                                                     2        0.8653000        3.41730189
                                                     2        0.8996000       -3.97894001
                                                     2        4.5872002      -37.31042862
                                                     2        5.5282001       77.44996643
                                                     1       22.2080002       18.01509857
                                                     0       19.1401005        6.86909294
   16          8                                                                                   10.417610 -2.954765 -0.472475
                                   No pseudopotential on this center.
   17          1                                                                                    8.764351 -3.704455 -0.743025
                                   No pseudopotential on this center.
   18          1                                                                                    9.940777 -1.195020 -0.241854
                                   No pseudopotential on this center.
   19          8                                                                                    5.480371  6.500763 -0.015123
                                   No pseudopotential on this center.
   20          1                                                                                    6.268523  4.809146 -0.005090
                                   No pseudopotential on this center.
   21          1                                                                                    4.620101  6.554936  1.590915
                                   No pseudopotential on this center.
   22          8                                                                                    0.745786 -6.067458  0.233603
                                   No pseudopotential on this center.
   23          1                                                                                    2.172291 -4.966686 -0.256781
                                   No pseudopotential on this center.
   24          1                                                                                    1.062706 -6.380710  1.999455
                                   No pseudopotential on this center.
 ===================================================================================================================================
 There are   401 symmetry adapted basis functions of A   symmetry.
 Integral buffers will be    131072 words long.
 Raffenetti 2 integral format.
 Two-electron integral symmetry is turned on.
   401 basis functions,   721 primitive gaussians,   427 cartesian basis functions
    63 alpha electrons       63 beta electrons
       nuclear repulsion energy      1137.1653297968 Hartrees.
 IExCor= 402 DFT=T Ex=B+HF Corr=LYP ExCW=0 ScaHFX=  0.200000
 ScaDFX=  0.800000  0.720000  1.000000  0.810000
 IRadAn=      0 IRanWt=     -1 IRanGd=            0 ICorTp=0
 NAtoms=   24 NActive=   24 NUniq=   24 SFac= 7.50D-01 NAtFMM=   80 NAOKFM=F Big=F
 Leave Link  301 at Mon Jul 28 16:10:38 2008, MaxMem=  536870912 cpu:       0.3
 (Enter /usr/local/Chem-Apps/g03_d01/g03/l302.exe)
 NPDir=0 NMtPBC=     1 NCelOv=     1 NCel=       1 NClECP=     1 NCelD=      1
         NCelK=      1 NCelE2=     1 NClLst=     1 CellRange=     0.0.
 One-electron integrals computed using PRISM.
   1 Symmetry operations used in ECPInt.
 ECPInt:  NShTT=   15051 NPrTT=   77353 LenC2=   14558 LenP2D=   50766.
 LDataN:  DoStor=F MaxTD1= 5 Len=  102
 LDataN:  DoStor=T MaxTD1= 5 Len=  102
 NBasis=   401 RedAO= T  NBF=   401
 NBsUse=   401 1.00D-06 NBFU=   401
 Precomputing XC quadrature grid using
 IXCGrd= 2 IRadAn=           0 IRanWt=          -1 IRanGd=           0.
 Defaulting to unpruned grid for atomic number  53.
 NRdTot=    1566 NPtTot=      210014 NUsed=      221073 NTot=      221105
 NSgBfM=   424   424   424   425.
 Leave Link  302 at Mon Jul 28 16:10:40 2008, MaxMem=  536870912 cpu:      11.1
 (Enter /usr/local/Chem-Apps/g03_d01/g03/l303.exe)
 DipDrv:  MaxL=1.
 Leave Link  303 at Mon Jul 28 16:10:41 2008, MaxMem=  536870912 cpu:       0.9
 (Enter /usr/local/Chem-Apps/g03_d01/g03/l401.exe)
 Initial guess read from the checkpoint file:
 molecule_5.chk
 Guess basis will be translated and rotated to current coordinates.
 Initial guess orbital symmetries:
       Occupied  (A) (A) (A) (A) (A) (A) (A) (A) (A) (A) (A) (A)
                 (A) (A) (A) (A) (A) (A) (A) (A) (A) (A) (A) (A)
                 (A) (A) (A) (A) (A) (A) (A) (A) (A) (A) (A) (A)
                 (A) (A) (A) (A) (A) (A) (A) (A) (A) (A) (A) (A)
                 (A) (A) (A) (A) (A) (A) (A) (A) (A) (A) (A) (A)
                 (A) (A) (A)
       Virtual   (A) (A) (A) (A) (A) (A) (A) (A) (A) (A) (A) (A)
                 (A) (A) (A) (A) (A) (A) (A) (A) (A) (A) (A) (A)
                 (A) (A) (A) (A) (A) (A) (A) (A) (A) (A) (A) (A)
                 (A) (A) (A) (A) (A) (A) (A) (A) (A) (A) (A) (A)
                 (A) (A) (A) (A) (A) (A) (A) (A) (A) (A) (A) (A)
                 (A) (A) (A) (A) (A) (A) (A) (A) (A) (A) (A) (A)
                 (A) (A) (A) (A) (A) (A) (A) (A) (A) (A) (A) (A)
                 (A) (A) (A) (A) (A) (A) (A) (A) (A) (A) (A) (A)
                 (A) (A) (A) (A) (A) (A) (A) (A) (A) (A) (A) (A)
                 (A) (A) (A) (A) (A) (A) (A) (A) (A) (A) (A) (A)
                 (A) (A) (A) (A) (A) (A) (A) (A) (A) (A) (A) (A)
                 (A) (A) (A) (A) (A) (A) (A) (A) (A) (A) (A) (A)
                 (A) (A) (A) (A) (A) (A) (A) (A) (A) (A) (A) (A)
                 (A) (A) (A) (A) (A) (A) (A) (A) (A) (A) (A) (A)
                 (A) (A) (A) (A) (A) (A) (A) (A) (A) (A) (A) (A)
                 (A) (A) (A) (A) (A) (A) (A) (A) (A) (A) (A) (A)
                 (A) (A) (A) (A) (A) (A) (A) (A) (A) (A) (A) (A)
                 (A) (A) (A) (A) (A) (A) (A) (A) (A) (A) (A) (A)
                 (A) (A) (A) (A) (A) (A) (A) (A) (A) (A) (A) (A)
                 (A) (A) (A) (A) (A) (A) (A) (A) (A) (A) (A) (A)
                 (A) (A) (A) (A) (A) (A) (A) (A) (A) (A) (A) (A)
                 (A) (A) (A) (A) (A) (A) (A) (A) (A) (A) (A) (A)
                 (A) (A) (A) (A) (A) (A) (A) (A) (A) (A) (A) (A)
                 (A) (A) (A) (A) (A) (A) (A) (A) (A) (A) (A) (A)
                 (A) (A) (A) (A) (A) (A) (A) (A) (A) (A) (A) (A)
                 (A) (A) (A) (A) (A) (A) (A) (A) (A) (A) (A) (A)
                 (A) (A) (A) (A) (A) (A) (A) (A) (A) (A) (A) (A)
                 (A) (A) (A) (A) (A) (A) (A) (A) (A) (A) (A) (A)
                 (A) (A)
 The electronic state of the initial guess is 1-A.
 Leave Link  401 at Mon Jul 28 16:10:42 2008, MaxMem=  536870912 cpu:       4.4
 (Enter /usr/local/Chem-Apps/g03_d01/g03/l502.exe)
 Closed shell SCF:
 Requested convergence on RMS density matrix=1.00D-08 within 128 cycles.
 Requested convergence on MAX density matrix=1.00D-06.
 Requested convergence on             energy=1.00D-06.
 No special actions if energy rises.
 Using DIIS extrapolation, IDIIS=  1040.
 Integral symmetry usage will be decided dynamically.
       221072 words used for storage of precomputed grid.
 IEnd=    882718 IEndB=    882718 NGot= 536870912 MDV= 536187591
 LenX= 536187591
 Fock matrices will be formed incrementally for  20 cycles.

 Cycle   1  Pass 1  IDiag  1:
 Petite list used in FoFDir.
 MinBra= 0 MaxBra= 2 Meth= 1.
 IRaf=       0 NMat=   1 IRICut=       1 DoRegI=T DoRafI=F ISym2E= 1 JSym2E=1.
 Defaulting to unpruned grid for atomic number  53.
 Defaulting to unpruned grid for atomic number  53.
 Defaulting to unpruned grid for atomic number  53.
 Defaulting to unpruned grid for atomic number  53.
 Defaulting to unpruned grid for atomic number  53.
 Defaulting to unpruned grid for atomic number  53.
 Defaulting to unpruned grid for atomic number  53.
 Defaulting to unpruned grid for atomic number  53.
 E= -1403.76053239826    
 DIIS: error= 2.76D-09 at cycle   1 NSaved=   1.
 NSaved= 1 IEnMin= 1 EnMin= -1403.76053239826     IErMin= 1 ErrMin= 2.76D-09
 ErrMax= 2.76D-09 EMaxC= 1.00D-01 BMatC= 1.56D-14 BMatP= 1.56D-14
 IDIUse=1 WtCom= 1.00D+00 WtEn= 0.00D+00
 Coeff-Com:  0.100D+01
 Coeff:      0.100D+01
 Gap=     0.165 Goal=   None    Shift=    0.000
 RMSDP=1.78D-09 MaxDP=7.03D-08              OVMax= 7.61D-08

 SCF Done:  E(RB+HF-LYP) =  -1403.76053240     A.U. after    1 cycles
             Convg  =    0.1776D-08             -V/T =  2.0327
             S**2   =   0.0000
 KE= 1.359339452745D+03 PE=-5.611524579776D+03 EE= 1.711259264835D+03
 Leave Link  502 at Mon Jul 28 16:11:25 2008, MaxMem=  536870912 cpu:     200.3
 (Enter /usr/local/Chem-Apps/g03_d01/g03/l601.exe)
 Copying SCF densities to generalized density rwf, ISCF=0 IROHF=0.

 **********************************************************************

            Population analysis using the SCF density.

 **********************************************************************

 Orbital symmetries:
       Occupied  (A) (A) (A) (A) (A) (A) (A) (A) (A) (A) (A) (A)
                 (A) (A) (A) (A) (A) (A) (A) (A) (A) (A) (A) (A)
                 (A) (A) (A) (A) (A) (A) (A) (A) (A) (A) (A) (A)
                 (A) (A) (A) (A) (A) (A) (A) (A) (A) (A) (A) (A)
                 (A) (A) (A) (A) (A) (A) (A) (A) (A) (A) (A) (A)
                 (A) (A) (A)
       Virtual   (A) (A) (A) (A) (A) (A) (A) (A) (A) (A) (A) (A)
                 (A) (A) (A) (A) (A) (A) (A) (A) (A) (A) (A) (A)
                 (A) (A) (A) (A) (A) (A) (A) (A) (A) (A) (A) (A)
                 (A) (A) (A) (A) (A) (A) (A) (A) (A) (A) (A) (A)
                 (A) (A) (A) (A) (A) (A) (A) (A) (A) (A) (A) (A)
                 (A) (A) (A) (A) (A) (A) (A) (A) (A) (A) (A) (A)
                 (A) (A) (A) (A) (A) (A) (A) (A) (A) (A) (A) (A)
                 (A) (A) (A) (A) (A) (A) (A) (A) (A) (A) (A) (A)
                 (A) (A) (A) (A) (A) (A) (A) (A) (A) (A) (A) (A)
                 (A) (A) (A) (A) (A) (A) (A) (A) (A) (A) (A) (A)
                 (A) (A) (A) (A) (A) (A) (A) (A) (A) (A) (A) (A)
                 (A) (A) (A) (A) (A) (A) (A) (A) (A) (A) (A) (A)
                 (A) (A) (A) (A) (A) (A) (A) (A) (A) (A) (A) (A)
                 (A) (A) (A) (A) (A) (A) (A) (A) (A) (A) (A) (A)
                 (A) (A) (A) (A) (A) (A) (A) (A) (A) (A) (A) (A)
                 (A) (A) (A) (A) (A) (A) (A) (A) (A) (A) (A) (A)
                 (A) (A) (A) (A) (A) (A) (A) (A) (A) (A) (A) (A)
                 (A) (A) (A) (A) (A) (A) (A) (A) (A) (A) (A) (A)
                 (A) (A) (A) (A) (A) (A) (A) (A) (A) (A) (A) (A)
                 (A) (A) (A) (A) (A) (A) (A) (A) (A) (A) (A) (A)
                 (A) (A) (A) (A) (A) (A) (A) (A) (A) (A) (A) (A)
                 (A) (A) (A) (A) (A) (A) (A) (A) (A) (A) (A) (A)
                 (A) (A) (A) (A) (A) (A) (A) (A) (A) (A) (A) (A)
                 (A) (A) (A) (A) (A) (A) (A) (A) (A) (A) (A) (A)
                 (A) (A) (A) (A) (A) (A) (A) (A) (A) (A) (A) (A)
                 (A) (A) (A) (A) (A) (A) (A) (A) (A) (A) (A) (A)
                 (A) (A) (A) (A) (A) (A) (A) (A) (A) (A) (A) (A)
                 (A) (A) (A) (A) (A) (A) (A) (A) (A) (A) (A) (A)
                 (A) (A)
 The electronic state is 1-A.
 Alpha  occ. eigenvalues --  -88.76537 -77.09563 -19.02495 -19.01972 -18.99992
 Alpha  occ. eigenvalues --  -18.99646 -18.99310 -14.22836 -10.14502 -10.13656
 Alpha  occ. eigenvalues --  -10.12670  -7.82612  -6.54460  -5.78990  -5.78648
 Alpha  occ. eigenvalues --   -5.78103  -4.70831  -4.70684  -4.70618  -2.04413
 Alpha  occ. eigenvalues --   -2.04083  -2.04054  -2.03138  -2.03136  -0.89067
 Alpha  occ. eigenvalues --   -0.88304  -0.87697  -0.86042  -0.82189  -0.80281
 Alpha  occ. eigenvalues --   -0.71542  -0.62225  -0.59178  -0.55315  -0.48550
 Alpha  occ. eigenvalues --   -0.44496  -0.40374  -0.39835  -0.38640  -0.37765
 Alpha  occ. eigenvalues --   -0.36952  -0.34949  -0.31656  -0.31007  -0.30450
 Alpha  occ. eigenvalues --   -0.28209  -0.27591  -0.27159  -0.26466  -0.25868
 Alpha  occ. eigenvalues --   -0.24821  -0.21869  -0.19920  -0.19184  -0.18483
 Alpha  occ. eigenvalues --   -0.18173  -0.17686  -0.17014  -0.16818  -0.16605
 Alpha  occ. eigenvalues --   -0.16130  -0.15447  -0.12749
 Alpha virt. eigenvalues --    0.03761   0.07159   0.08447   0.09129   0.09288
 Alpha virt. eigenvalues --    0.10910   0.11114   0.11691   0.11949   0.12515
 Alpha virt. eigenvalues --    0.13238   0.13634   0.14400   0.14839   0.15999
 Alpha virt. eigenvalues --    0.16610   0.17158   0.17202   0.17491   0.17550
 Alpha virt. eigenvalues --    0.18363   0.18482   0.18831   0.19382   0.19561
 Alpha virt. eigenvalues --    0.20439   0.20683   0.21096   0.21633   0.22149
 Alpha virt. eigenvalues --    0.22561   0.23624   0.23801   0.24149   0.24650
 Alpha virt. eigenvalues --    0.25367   0.25766   0.26433   0.26762   0.26883
 Alpha virt. eigenvalues --    0.27769   0.28295   0.28498   0.28883   0.29329
 Alpha virt. eigenvalues --    0.29789   0.30337   0.30554   0.31205   0.31629
 Alpha virt. eigenvalues --    0.31911   0.32249   0.32386   0.32697   0.32978
 Alpha virt. eigenvalues --    0.33590   0.33711   0.34597   0.35419   0.35490
 Alpha virt. eigenvalues --    0.35829   0.36245   0.36622   0.37011   0.37343
 Alpha virt. eigenvalues --    0.37547   0.38578   0.39059   0.40082   0.40223
 Alpha virt. eigenvalues --    0.40865   0.41494   0.41692   0.42751   0.43289
 Alpha virt. eigenvalues --    0.43746   0.44398   0.44869   0.45558   0.46560
 Alpha virt. eigenvalues --    0.46975   0.47292   0.47697   0.47773   0.48594
 Alpha virt. eigenvalues --    0.49864   0.50563   0.50733   0.51681   0.52263
 Alpha virt. eigenvalues --    0.52806   0.53313   0.53796   0.54763   0.55041
 Alpha virt. eigenvalues --    0.55400   0.55932   0.56600   0.57510   0.58985
 Alpha virt. eigenvalues --    0.59099   0.60309   0.61090   0.61395   0.62170
 Alpha virt. eigenvalues --    0.62475   0.62692   0.62860   0.63809   0.64406
 Alpha virt. eigenvalues --    0.65576   0.65799   0.66042   0.66919   0.67300
 Alpha virt. eigenvalues --    0.67869   0.69561   0.69902   0.70701   0.71028
 Alpha virt. eigenvalues --    0.71288   0.72289   0.72742   0.72984   0.74779
 Alpha virt. eigenvalues --    0.75757   0.76781   0.77131   0.77759   0.78334
 Alpha virt. eigenvalues --    0.79529   0.80000   0.80797   0.81121   0.81653
 Alpha virt. eigenvalues --    0.81774   0.83785   0.84824   0.85615   0.87131
 Alpha virt. eigenvalues --    0.87246   0.88376   0.88703   0.89774   0.90213
 Alpha virt. eigenvalues --    0.91924   0.92706   0.93377   0.93427   0.95557
 Alpha virt. eigenvalues --    0.96925   0.97896   0.98049   0.98399   0.99323
 Alpha virt. eigenvalues --    0.99657   1.00884   1.01931   1.02960   1.04172
 Alpha virt. eigenvalues --    1.04970   1.05797   1.06014   1.06508   1.07085
 Alpha virt. eigenvalues --    1.07581   1.09009   1.09615   1.10039   1.11238
 Alpha virt. eigenvalues --    1.13372   1.14463   1.14843   1.15338   1.16337
 Alpha virt. eigenvalues --    1.16924   1.17312   1.17967   1.18976   1.19666
 Alpha virt. eigenvalues --    1.20715   1.21846   1.22489   1.23365   1.24559
 Alpha virt. eigenvalues --    1.25475   1.26689   1.27620   1.27943   1.28920
 Alpha virt. eigenvalues --    1.30608   1.31017   1.32468   1.33508   1.35288
 Alpha virt. eigenvalues --    1.36469   1.37633   1.37842   1.38429   1.40730
 Alpha virt. eigenvalues --    1.41553   1.42517   1.43753   1.45465   1.46609
 Alpha virt. eigenvalues --    1.48697   1.49381   1.51121   1.51472   1.53599
 Alpha virt. eigenvalues --    1.54999   1.55297   1.56448   1.58608   1.60170
 Alpha virt. eigenvalues --    1.62213   1.62956   1.65260   1.66192   1.66248
 Alpha virt. eigenvalues --    1.68435   1.71919   1.72672   1.73694   1.75803
 Alpha virt. eigenvalues --    1.77156   1.78326   1.79783   1.81166   1.82316
 Alpha virt. eigenvalues --    1.83451   1.85045   1.86443   1.89666   1.90548
 Alpha virt. eigenvalues --    1.90769   1.91080   1.92116   1.92405   1.93405
 Alpha virt. eigenvalues --    1.95325   1.97172   1.98193   1.98726   1.99828
 Alpha virt. eigenvalues --    2.02147   2.03880   2.04213   2.05476   2.07777
 Alpha virt. eigenvalues --    2.08454   2.12034   2.14269   2.15210   2.16677
 Alpha virt. eigenvalues --    2.18648   2.19793   2.23924   2.24983   2.28009
 Alpha virt. eigenvalues --    2.29681   2.32691   2.33863   2.35211   2.36837
 Alpha virt. eigenvalues --    2.38287   2.40506   2.40892   2.42321   2.43493
 Alpha virt. eigenvalues --    2.45356   2.46631   2.50489   2.52092   2.60015
 Alpha virt. eigenvalues --    2.60418   2.61522   2.63246   2.66006   2.66150
 Alpha virt. eigenvalues --    2.67303   2.68210   2.69985   2.73317   2.75101
 Alpha virt. eigenvalues --    2.77581   2.80031   2.82427   2.86221   2.88286
 Alpha virt. eigenvalues --    2.91061   2.93024   2.93684   2.95861   2.99724
 Alpha virt. eigenvalues --    3.05255   3.10232   3.31397   3.46075   3.47446
 Alpha virt. eigenvalues --    3.49196   3.50063   3.50276   3.50785   3.51543
 Alpha virt. eigenvalues --    3.51752   3.53411   3.53770   3.55990   3.57092
 Alpha virt. eigenvalues --    3.58395   3.60339   3.63532   3.66682   3.69023
 Alpha virt. eigenvalues --    3.71597   3.80783   3.83893   3.89865   3.92408
 Alpha virt. eigenvalues --    3.93979   4.12214   4.13977   4.18220   4.73740
 Alpha virt. eigenvalues --    4.75092   4.92216   4.94057   5.03318   5.91732
 Alpha virt. eigenvalues --    5.93850   6.10021  13.88701  13.89756  14.02858
 Alpha virt. eigenvalues --   14.03858  14.15041  22.39282
          Condensed to atoms (all electrons):
              1          2          3          4          5          6
     1  P   14.760864  -0.260252  -0.268075   0.273605  -0.097138  -0.311359
     2  O   -0.260252   9.146601  -0.056980  -0.006521  -0.033126   0.106304
     3  O   -0.268075  -0.056980   9.148810   0.056436   0.015957   0.080769
     4  N    0.273605  -0.006521   0.056436   7.654642   0.261181  -0.004651
     5  H   -0.097138  -0.033126   0.015957   0.261181   1.059471   0.001602
     6  S   -0.311359   0.106304   0.080769  -0.004651   0.001602  16.921095
     7  C   -1.096744   0.097225   0.023498  -0.619774  -0.014793   0.130724
     8  H    0.088485   0.000326  -0.005954  -0.026496  -0.116431   0.032970
     9  H    0.008123   0.006095   0.029214  -0.279321   0.093671   0.009786
    10  C   -0.059605  -0.000622   0.006718  -0.171538  -0.102649  -0.914060
    11  H   -0.055436  -0.003168  -0.001019  -0.120556   0.023336  -0.052938
    12  C    0.175630   0.009267   0.011380   0.211178  -0.017221   0.344228
    13  H   -0.037600   0.001898  -0.004605  -0.001219  -0.006578   0.058969
    14  H    0.016355   0.000486   0.001916   0.008883   0.001845  -0.002080
    15  I    0.004613  -0.000064   0.000370   0.033619  -0.000691   0.011624
    16  O    0.044892  -0.060927  -0.046509  -0.003220   0.001077  -0.004380
    17  H    0.019478  -0.014976   0.041298  -0.002953   0.000463  -0.008845
    18  H    0.011259   0.056009  -0.015297   0.001289   0.000691  -0.004729
    19  O   -0.033993  -0.031632  -0.001666   0.000638   0.013209   0.000603
    20  H    0.032841   0.101385   0.000938  -0.016833   0.022901  -0.008176
    21  H    0.021672  -0.014420   0.000681   0.015781  -0.006397  -0.004382
    22  O   -0.026146  -0.000589  -0.030598  -0.005394   0.000940  -0.016536
    23  H   -0.035649   0.003435   0.082512  -0.006840  -0.002607   0.000578
    24  H    0.010105   0.000426  -0.012750   0.001282   0.000152   0.013032
              7          8          9         10         11         12
     1  P   -1.096744   0.088485   0.008123  -0.059605  -0.055436   0.175630
     2  O    0.097225   0.000326   0.006095  -0.000622  -0.003168   0.009267
     3  O    0.023498  -0.005954   0.029214   0.006718  -0.001019   0.011380
     4  N   -0.619774  -0.026496  -0.279321  -0.171538  -0.120556   0.211178
     5  H   -0.014793  -0.116431   0.093671  -0.102649   0.023336  -0.017221
     6  S    0.130724   0.032970   0.009786  -0.914060  -0.052938   0.344228
     7  C    7.692028  -0.370137   0.136809  -0.352312   0.444543  -1.181522
     8  H   -0.370137   2.575112  -0.872720   0.228454  -0.294906   0.191934
     9  H    0.136809  -0.872720   3.019448  -0.508077   0.161173  -0.217557
    10  C   -0.352312   0.228454  -0.508077   9.423470  -0.630391  -1.338567
    11  H    0.444543  -0.294906   0.161173  -0.630391   2.470471  -0.330753
    12  C   -1.181522   0.191934  -0.217557  -1.338567  -0.330753   7.517843
    13  H   -0.109875   0.026295  -0.091302  -0.422606   0.102963   0.436105
    14  H    0.118333   0.025216   0.019191  -0.005122  -0.179819  -0.013517
    15  I    0.211521   0.045168   0.058824  -0.176714   0.036677  -0.189430
    16  O   -0.004955  -0.000423   0.000844  -0.000648  -0.000192  -0.000682
    17  H   -0.001257   0.000247   0.001835  -0.000522  -0.000614  -0.001844
    18  H   -0.006593  -0.000081  -0.000469  -0.002738  -0.000452   0.001161
    19  O    0.022938   0.002829   0.001374  -0.014865   0.005126  -0.003163
    20  H   -0.011211   0.001992   0.001472  -0.007680   0.005962   0.000606
    21  H   -0.019705  -0.001855  -0.001055   0.009314  -0.004639   0.002893
    22  O   -0.008509  -0.005778   0.029358   0.058167   0.002720  -0.060265
    23  H    0.008638   0.005789  -0.027491   0.040700   0.004146  -0.010508
    24  H   -0.001058  -0.001297  -0.001791  -0.013675   0.000150   0.010287
             13         14         15         16         17         18
     1  P   -0.037600   0.016355   0.004613   0.044892   0.019478   0.011259
     2  O    0.001898   0.000486  -0.000064  -0.060927  -0.014976   0.056009
     3  O   -0.004605   0.001916   0.000370  -0.046509   0.041298  -0.015297
     4  N   -0.001219   0.008883   0.033619  -0.003220  -0.002953   0.001289
     5  H   -0.006578   0.001845  -0.000691   0.001077   0.000463   0.000691
     6  S    0.058969  -0.002080   0.011624  -0.004380  -0.008845  -0.004729
     7  C   -0.109875   0.118333   0.211521  -0.004955  -0.001257  -0.006593
     8  H    0.026295   0.025216   0.045168  -0.000423   0.000247  -0.000081
     9  H   -0.091302   0.019191   0.058824   0.000844   0.001835  -0.000469
    10  C   -0.422606  -0.005122  -0.176714  -0.000648  -0.000522  -0.002738
    11  H    0.102963  -0.179819   0.036677  -0.000192  -0.000614  -0.000452
    12  C    0.436105  -0.013517  -0.189430  -0.000682  -0.001844   0.001161
    13  H    1.861277  -0.578658  -0.072418  -0.000214  -0.000363  -0.000205
    14  H   -0.578658   1.955871  -0.078740  -0.000023  -0.000003   0.000071
    15  I   -0.072418  -0.078740  17.208299   0.000000   0.000070   0.000010
    16  O   -0.000214  -0.000023   0.000000   7.836801   0.280838   0.271666
    17  H   -0.000363  -0.000003   0.000070   0.280838   0.655088  -0.102594
    18  H   -0.000205   0.000071   0.000010   0.271666  -0.102594   0.638949
    19  O   -0.000636   0.000155   0.000029  -0.000902  -0.000464   0.000806
    20  H    0.000388  -0.000548   0.000180   0.000030  -0.000433  -0.000406
    21  H   -0.000110   0.000772  -0.000233  -0.000066   0.000262  -0.000016
    22  O    0.027576  -0.003337  -0.001834   0.000149   0.001135  -0.000334
    23  H    0.010231  -0.004230  -0.003798   0.000388  -0.003873   0.000098
    24  H   -0.005305   0.001266  -0.001479   0.000096  -0.000480   0.000440
             19         20         21         22         23         24
     1  P   -0.033993   0.032841   0.021672  -0.026146  -0.035649   0.010105
     2  O   -0.031632   0.101385  -0.014420  -0.000589   0.003435   0.000426
     3  O   -0.001666   0.000938   0.000681  -0.030598   0.082512  -0.012750
     4  N    0.000638  -0.016833   0.015781  -0.005394  -0.006840   0.001282
     5  H    0.013209   0.022901  -0.006397   0.000940  -0.002607   0.000152
     6  S    0.000603  -0.008176  -0.004382  -0.016536   0.000578   0.013032
     7  C    0.022938  -0.011211  -0.019705  -0.008509   0.008638  -0.001058
     8  H    0.002829   0.001992  -0.001855  -0.005778   0.005789  -0.001297
     9  H    0.001374   0.001472  -0.001055   0.029358  -0.027491  -0.001791
    10  C   -0.014865  -0.007680   0.009314   0.058167   0.040700  -0.013675
    11  H    0.005126   0.005962  -0.004639   0.002720   0.004146   0.000150
    12  C   -0.003163   0.000606   0.002893  -0.060265  -0.010508   0.010287
    13  H   -0.000636   0.000388  -0.000110   0.027576   0.010231  -0.005305
    14  H    0.000155  -0.000548   0.000772  -0.003337  -0.004230   0.001266
    15  I    0.000029   0.000180  -0.000233  -0.001834  -0.003798  -0.001479
    16  O   -0.000902   0.000030  -0.000066   0.000149   0.000388   0.000096
    17  H   -0.000464  -0.000433   0.000262   0.001135  -0.003873  -0.000480
    18  H    0.000806  -0.000406  -0.000016  -0.000334   0.000098   0.000440
    19  O    7.831269   0.153592   0.336576  -0.000042   0.000021   0.000034
    20  H    0.153592   0.623845  -0.086389  -0.000151   0.000123   0.000028
    21  H    0.336576  -0.086389   0.671124  -0.000004  -0.000148   0.000006
    22  O   -0.000042  -0.000151  -0.000004   7.863993   0.169941   0.330165
    23  H    0.000021   0.000123  -0.000148   0.169941   0.634241  -0.095282
    24  H    0.000034   0.000028   0.000006   0.330165  -0.095282   0.677432
 Mulliken atomic charges:
              1
     1  P    1.814077
     2  O   -1.046182
     3  O   -1.057043
     4  N   -0.253219
     5  H   -0.098866
     6  S   -0.380145
     7  C    0.912189
     8  H   -0.528738
     9  H   -0.577434
    10  C    0.955571
    11  H   -0.582384
    12  C    0.452518
    13  H   -0.194008
    14  H   -0.284282
    15  I   -0.085602
    16  O   -0.313640
    17  H    0.138507
    18  H    0.151466
    19  O   -0.281837
    20  H    0.185543
    21  H    0.080337
    22  O   -0.324626
    23  H    0.229586
    24  H    0.088214
 Sum of Mulliken charges=  -1.00000
 Atomic charges with hydrogens summed into heavy atoms:
              1
     1  P    1.814077
     2  O   -1.046182
     3  O   -1.057043
     4  N   -0.352086
     5  H    0.000000
     6  S   -0.380145
     7  C   -0.193983
     8  H    0.000000
     9  H    0.000000
    10  C    0.373187
    11  H    0.000000
    12  C   -0.025772
    13  H    0.000000
    14  H    0.000000
    15  I   -0.085602
    16  O   -0.023668
    17  H    0.000000
    18  H    0.000000
    19  O   -0.015957
    20  H    0.000000
    21  H    0.000000
    22  O   -0.006826
    23  H    0.000000
    24  H    0.000000
 Sum of Mulliken charges=  -1.00000
 Electronic spatial extent (au):  <R**2>=  4778.1086
 Charge=    -1.0000 electrons
 Dipole moment (field-independent basis, Debye):
    X=   -12.3299    Y=     2.3508    Z=     2.0226  Tot=    12.7139
 Quadrupole moment (field-independent basis, Debye-Ang):
   XX=  -190.4746   YY=  -140.0771   ZZ=  -114.5616
   XY=     1.8328   XZ=     5.1949   YZ=    -2.9619
 Traceless Quadrupole moment (field-independent basis, Debye-Ang):
   XX=   -42.1035   YY=     8.2940   ZZ=    33.8095
   XY=     1.8328   XZ=     5.1949   YZ=    -2.9619
 Octapole moment (field-independent basis, Debye-Ang**2):
  XXX=  -465.8401  YYY=   -11.3586  ZZZ=    -7.7050  XYY=  -120.1218
  XXY=    43.0961  XXZ=    10.6343  XZZ=   -59.8318  YZZ=    -2.9557
  YYZ=    23.6532  XYZ=     1.9230
 Hexadecapole moment (field-independent basis, Debye-Ang**3):
 XXXX= -7080.0125 YYYY= -1751.0119 ZZZZ=  -563.3089 XXXY=   354.2723
 XXXZ=   160.1865 YYYX=  -170.7018 YYYZ=    -6.7440 ZZZX=    30.6125
 ZZZY=    -8.3834 XXYY= -1413.6148 XXZZ=  -967.5033 YYZZ=  -289.4994
 XXYZ=   -11.4054 YYXZ=    47.8395 ZZXY=     5.8731
 N-N= 1.137165329797D+03 E-N=-5.611524577557D+03  KE= 1.359339452745D+03
 No NMR shielding tensors so no spin-rotation constants.
 Leave Link  601 at Mon Jul 28 16:11:26 2008, MaxMem=  536870912 cpu:       5.4
 (Enter /usr/local/Chem-Apps/g03_d01/g03/l701.exe)
 Compute integral first derivatives.
 ... and contract with generalized density number  0.
   1 Symmetry operations used in ECPInt.
 ECPInt:  NShTT=   15051 NPrTT=   77353 LenC2=   14558 LenP2D=   50766.
 LDataN:  DoStor=F MaxTD1= 6 Len=  172
 LDataN:  DoStor=T MaxTD1= 6 Len=  172
 Leave Link  701 at Mon Jul 28 16:11:29 2008, MaxMem=  536870912 cpu:      12.8
 (Enter /usr/local/Chem-Apps/g03_d01/g03/l702.exe)
 L702 exits ... SP integral derivatives will be done elsewhere.
 Leave Link  702 at Mon Jul 28 16:11:29 2008, MaxMem=  536870912 cpu:       0.0
 (Enter /usr/local/Chem-Apps/g03_d01/g03/l703.exe)
 Compute integral first derivatives, UseDBF=F.
 Integral derivatives from FoFDir, PRISM(SPDF).
 Symmetry not used in FoFDir.
 MinBra= 0 MaxBra= 2 Meth= 1.
 IRaf=       0 NMat=   1 IRICut=       1 DoRegI=T DoRafI=F ISym2E= 0 JSym2E=0.
 Defaulting to unpruned grid for atomic number  53.
 Defaulting to unpruned grid for atomic number  53.
 Defaulting to unpruned grid for atomic number  53.
 Defaulting to unpruned grid for atomic number  53.
 Defaulting to unpruned grid for atomic number  53.
 Defaulting to unpruned grid for atomic number  53.
 Defaulting to unpruned grid for atomic number  53.
 Defaulting to unpruned grid for atomic number  53.
 Leave Link  703 at Mon Jul 28 16:13:29 2008, MaxMem=  536870912 cpu:     547.4
 (Enter /usr/local/Chem-Apps/g03_d01/g03/l716.exe)
 Dipole        =-4.85095611D+00 9.24865291D-01 7.95757005D-01
 ***** Axes restored to original set *****
 -------------------------------------------------------------------
 Center     Atomic                   Forces (Hartrees/Bohr)
 Number     Number              X              Y              Z
 -------------------------------------------------------------------
    1         15          -0.000001739    0.000003096   -0.000004196
    2          8          -0.000006205   -0.000006194   -0.000007075
    3          8          -0.000019972    0.000000717    0.000012771
    4          7          -0.000000229    0.000003146    0.000000990
    5          1          -0.000002439    0.000003075   -0.000004492
    6         16           0.000006557   -0.000001505   -0.000002254
    7          6          -0.000000423    0.000001499   -0.000001476
    8          1          -0.000001540    0.000003355   -0.000002669
    9          1          -0.000000307    0.000002510    0.000001663
   10          6          -0.000006020   -0.000003593    0.000002713
   11          1           0.000000252   -0.000001918   -0.000006194
   12          6           0.000002606   -0.000003489   -0.000001284
   13          1           0.000001860   -0.000003236    0.000003070
   14          1           0.000001195   -0.000005527    0.000000441
   15         53           0.000000236   -0.000001698   -0.000000557
   16          8           0.000001781   -0.000002894    0.000003380
   17          1           0.000000013    0.000010242    0.000003324
   18          1           0.000001680    0.000009087    0.000006632
   19          8          -0.000004759   -0.000001295   -0.000005327
   20          1           0.000005253    0.000005702   -0.000008797
   21          1          -0.000001907   -0.000001276   -0.000008718
   22          8          -0.000022211    0.000014347    0.000013141
   23          1           0.000041912   -0.000020388   -0.000003497
   24          1           0.000004407   -0.000003761    0.000008410
 -------------------------------------------------------------------
 Cartesian Forces:  Max     0.000041912 RMS     0.000008105
 Leave Link  716 at Mon Jul 28 16:13:29 2008, MaxMem=  536870912 cpu:       0.0
 (Enter /usr/local/Chem-Apps/g03_d01/g03/l103.exe)

 GradGradGradGradGradGradGradGradGradGradGradGradGradGradGradGradGradGrad
 Berny optimization.
 Internal  Forces:  Max     0.000012662 RMS     0.000002249
 Search for a local minimum.
 Step number   1 out of a maximum of 136
 All quantities printed in internal units (Hartrees-Bohrs-Radians)
 Swaping is turned off.
 Second derivative matrix not updated -- first step.
     Eigenvalues ---    0.00230   0.00230   0.00376   0.00557   0.00611
     Eigenvalues ---    0.00824   0.01185   0.01193   0.01396   0.01821
     Eigenvalues ---    0.02969   0.03078   0.03426   0.03722   0.04133
     Eigenvalues ---    0.04293   0.04523   0.05270   0.05436   0.05635
     Eigenvalues ---    0.05704   0.06247   0.06525   0.06602   0.07573
     Eigenvalues ---    0.07789   0.09543   0.09873   0.10732   0.11334
     Eigenvalues ---    0.12552   0.13078   0.14351   0.15616   0.15839
     Eigenvalues ---    0.16000   0.16000   0.16000   0.16000   0.17175
     Eigenvalues ---    0.18519   0.19884   0.19948   0.21207   0.22081
     Eigenvalues ---    0.22259   0.25000   0.25000   0.25795   0.30775
     Eigenvalues ---    0.31676   0.33911   0.33928   0.34003   0.34236
     Eigenvalues ---    0.34623   0.35755   0.44116   0.49830   0.49942
     Eigenvalues ---    0.50850   0.51256   0.54506   0.54676   0.64045
     Eigenvalues ---    0.651141000.000001000.000001000.000001000.00000
     Eigenvalues --- 1000.000001000.000001000.000001000.000001000.00000
     Eigenvalues --- 1000.000001000.000001000.000001000.000001000.00000
     Eigenvalues --- 1000.000001000.000001000.000001000.000001000.00000
     Eigenvalues --- 1000.000001000.000001000.000001000.000001000.00000
     Eigenvalues --- 1000.000001000.000001000.000001000.000001000.00000
     Eigenvalues --- 1000.000001000.000001000.000001000.000001000.00000
     Eigenvalues --- 1000.000001000.000001000.000001000.000001000.00000
     Eigenvalues --- 1000.000001000.000001000.000001000.000001000.00000
     Eigenvalues --- 1000.000001000.000001000.000001000.000001000.00000
     Eigenvalues --- 1000.000001000.000001000.000001000.000001000.00000
     Eigenvalues --- 1000.000001000.000001000.000001000.000001000.00000
     Eigenvalues --- 1000.00000
 Angle between quadratic step and forces=  68.69 degrees.
 Linear search not attempted -- option 19 set.
 Iteration  1 RMS(Cart)=  0.00005403 RMS(Int)=  0.00000002
 Iteration  2 RMS(Cart)=  0.00000002 RMS(Int)=  0.00000000
 Variable       Old X    -DE/DX   Delta X   Delta X   Delta X     New X
                                 (Linear)    (Quad)   (Total)
    R1        2.90058   0.00000   0.00000   0.00000   0.00000   2.90058
    R2        2.89738   0.00000   0.00000  -0.00001  -0.00001   2.89737
    R3        3.25941   0.00000   0.00000   0.00000   0.00000   3.25941
    R4        4.23733   0.00000   0.00000   0.00002   0.00002   4.23735
    R5        4.00406   0.00000   0.00000   0.00008   0.00008   4.00414
    R6        3.37972   0.00000   0.00000   0.00000   0.00000   3.37971
    R7        4.14593   0.00000   0.00000  -0.00005  -0.00005   4.14589
    R8        3.33621   0.00001   0.00000   0.00008   0.00008   3.33629
    R9        1.93016   0.00000   0.00000   0.00000   0.00000   1.93016
   R10        2.75842   0.00000   0.00000   0.00000   0.00000   2.75842
   R11        3.52809   0.00000   0.00000  -0.00002  -0.00002   3.52807
   R12        2.07324   0.00000   0.00000   0.00000   0.00000   2.07324
   R13        2.07452   0.00000   0.00000   0.00000   0.00000   2.07452
   R14        2.94845   0.00000   0.00000   0.00000   0.00000   2.94845
   R15        2.07481   0.00000   0.00000   0.00000   0.00000   2.07481
   R16        2.86444   0.00000   0.00000   0.00000   0.00000   2.86444
   R17        2.06933   0.00000   0.00000   0.00000   0.00000   2.06933
   R18        2.06292   0.00000   0.00000   0.00000   0.00000   2.06292
   R19        4.25426   0.00000   0.00000   0.00000   0.00000   4.25426
   R20        1.83535   0.00000   0.00000   0.00000   0.00000   1.83535
   R21        1.83773   0.00000   0.00000   0.00000   0.00000   1.83773
   R22        1.86624   0.00000   0.00000   0.00000   0.00000   1.86624
   R23        1.82273   0.00000   0.00000   0.00000   0.00000   1.82273
   R24        1.86738   0.00000   0.00000  -0.00001  -0.00001   1.86737
   R25        1.82121   0.00000   0.00000   0.00000   0.00000   1.82121
    A1        2.10195   0.00000   0.00000   0.00000   0.00000   2.10194
    A2        1.92894   0.00000   0.00000   0.00000   0.00000   1.92894
    A3        1.91552   0.00000   0.00000   0.00001   0.00001   1.91553
    A4        1.93867   0.00000   0.00000   0.00001   0.00001   1.93868
    A5        1.88614   0.00000   0.00000  -0.00001  -0.00001   1.88613
    A6        1.63446   0.00000   0.00000   0.00000   0.00000   1.63445
    A7        1.82294   0.00000   0.00000  -0.00003  -0.00003   1.82291
    A8        1.91875  -0.00001   0.00000  -0.00002  -0.00002   1.91872
    A9        2.52855   0.00001   0.00000   0.00007   0.00007   2.52862
   A10        1.80660   0.00001   0.00000   0.00004   0.00004   1.80664
   A11        2.14728   0.00000   0.00000  -0.00002  -0.00002   2.14726
   A12        2.23103   0.00000   0.00000   0.00000   0.00000   2.23103
   A13        1.89088   0.00000   0.00000   0.00000   0.00000   1.89089
   A14        1.92499   0.00000   0.00000   0.00001   0.00001   1.92499
   A15        1.95879   0.00000   0.00000   0.00000   0.00000   1.95879
   A16        1.62366   0.00000   0.00000   0.00000   0.00000   1.62367
   A17        1.91096   0.00000   0.00000   0.00000   0.00000   1.91096
   A18        1.88674   0.00000   0.00000   0.00000   0.00000   1.88674
   A19        1.98094   0.00000   0.00000   0.00000   0.00000   1.98093
   A20        1.88132   0.00000   0.00000   0.00000   0.00000   1.88132
   A21        1.90600   0.00000   0.00000   0.00000   0.00000   1.90601
   A22        1.89526   0.00000   0.00000   0.00000   0.00000   1.89526
   A23        1.90737   0.00000   0.00000   0.00000   0.00000   1.90737
   A24        1.86303   0.00000   0.00000   0.00002   0.00002   1.86304
   A25        1.86787   0.00000   0.00000   0.00000   0.00000   1.86787
   A26        1.92312   0.00000   0.00000  -0.00001  -0.00001   1.92311
   A27        1.97169   0.00000   0.00000   0.00000   0.00000   1.97169
   A28        1.92669   0.00000   0.00000  -0.00001  -0.00001   1.92669
   A29        1.95469   0.00000   0.00000   0.00000   0.00000   1.95469
   A30        1.97151   0.00000   0.00000   0.00000   0.00000   1.97151
   A31        1.95592   0.00000   0.00000   0.00001   0.00001   1.95592
   A32        1.94667   0.00000   0.00000  -0.00001  -0.00001   1.94667
   A33        1.83541   0.00000   0.00000   0.00000   0.00000   1.83541
   A34        1.78852   0.00000   0.00000   0.00000   0.00000   1.78852
   A35        1.74763   0.00000   0.00000   0.00001   0.00001   1.74764
   A36        2.51024  -0.00001   0.00000  -0.00003  -0.00003   2.51021
   A37        2.57580   0.00000   0.00000   0.00001   0.00001   2.57582
   A38        1.79417   0.00000   0.00000   0.00000   0.00000   1.79417
   A39        2.92193   0.00001   0.00000   0.00002   0.00002   2.92195
   A40        1.79577   0.00000   0.00000   0.00000   0.00000   1.79578
   A41        3.06138   0.00001   0.00000   0.00005   0.00005   3.06143
    D1       -0.03940   0.00000   0.00000  -0.00005  -0.00005  -0.03944
    D2        2.97473   0.00000   0.00000   0.00005   0.00005   2.97478
    D3       -2.33800   0.00000   0.00000  -0.00006  -0.00006  -2.33805
    D4        0.67613   0.00000   0.00000   0.00004   0.00004   0.67617
    D5        2.16633   0.00000   0.00000  -0.00006  -0.00006   2.16627
    D6       -1.10273   0.00000   0.00000   0.00004   0.00004  -1.10269
    D7        0.03479   0.00000   0.00000  -0.00001  -0.00001   0.03478
    D8        2.74542   0.00000   0.00000   0.00003   0.00003   2.74545
    D9        2.32923   0.00000   0.00000  -0.00001  -0.00001   2.32922
   D10       -1.24333   0.00000   0.00000   0.00003   0.00003  -1.24330
   D11       -2.18440   0.00000   0.00000  -0.00002  -0.00002  -2.18442
   D12        0.52622   0.00000   0.00000   0.00003   0.00003   0.52625
   D13       -0.51980   0.00000   0.00000   0.00001   0.00001  -0.51978
   D14       -2.67001   0.00000   0.00000   0.00001   0.00001  -2.67000
   D15       -2.90000   0.00000   0.00000   0.00001   0.00001  -2.89999
   D16        1.23298   0.00000   0.00000   0.00001   0.00001   1.23298
   D17        1.44667   0.00000   0.00000   0.00003   0.00003   1.44669
   D18       -0.70354   0.00000   0.00000   0.00002   0.00002  -0.70352
   D19        2.31223   0.00000   0.00000  -0.00004  -0.00004   2.31219
   D20       -1.64797   0.00000   0.00000  -0.00004  -0.00004  -1.64801
   D21        0.33418   0.00000   0.00000  -0.00004  -0.00004   0.33414
   D22        0.00631   0.00000   0.00000   0.00020   0.00020   0.00651
   D23       -2.92606   0.00000   0.00000   0.00007   0.00007  -2.92599
   D24        0.07774   0.00000   0.00000   0.00000   0.00000   0.07774
   D25        3.00371   0.00000   0.00000   0.00013   0.00013   3.00385
   D26        0.01498   0.00000   0.00000   0.00013   0.00013   0.01511
   D27       -2.66720   0.00000   0.00000   0.00009   0.00009  -2.66711
   D28       -0.84868   0.00000   0.00000  -0.00034  -0.00034  -0.84902
   D29        1.75277   0.00000   0.00000  -0.00028  -0.00028   1.75249
   D30        3.03091   0.00000   0.00000   0.00001   0.00001   3.03092
   D31       -1.20719   0.00000   0.00000   0.00001   0.00001  -1.20718
   D32        0.89631   0.00000   0.00000   0.00001   0.00001   0.89631
   D33        0.92080   0.00000   0.00000   0.00000   0.00000   0.92080
   D34        2.96588   0.00000   0.00000   0.00000   0.00000   2.96589
   D35       -1.21380   0.00000   0.00000   0.00000   0.00000  -1.21380
   D36        0.05749   0.00000   0.00000   0.00004   0.00004   0.05753
   D37       -2.02200   0.00000   0.00000   0.00004   0.00004  -2.02196
   D38        2.19812   0.00000   0.00000   0.00004   0.00004   2.19816
   D39       -0.55338   0.00000   0.00000  -0.00004  -0.00004  -0.55342
   D40        1.48847   0.00000   0.00000  -0.00002  -0.00002   1.48845
   D41       -2.63069   0.00000   0.00000  -0.00004  -0.00004  -2.63073
   D42       -2.69073   0.00000   0.00000  -0.00004  -0.00004  -2.69077
   D43       -0.64888   0.00000   0.00000  -0.00002  -0.00002  -0.64890
   D44        1.51515   0.00000   0.00000  -0.00004  -0.00004   1.51511
   D45        1.54530   0.00000   0.00000  -0.00004  -0.00004   1.54526
   D46       -2.69603   0.00000   0.00000  -0.00002  -0.00002  -2.69606
   D47       -0.53201   0.00000   0.00000  -0.00004  -0.00004  -0.53205
   D48       -1.21840   0.00000   0.00000  -0.00003  -0.00003  -1.21843
   D49        0.99725   0.00000   0.00000  -0.00004  -0.00004   0.99721
   D50        3.00684   0.00000   0.00000  -0.00003  -0.00003   3.00681
   D51        0.88164   0.00000   0.00000  -0.00003  -0.00003   0.88161
   D52        3.09729   0.00000   0.00000  -0.00004  -0.00004   3.09725
   D53       -1.17630   0.00000   0.00000  -0.00003  -0.00003  -1.17634
   D54        3.04369   0.00000   0.00000  -0.00004  -0.00004   3.04365
   D55       -1.02384   0.00000   0.00000  -0.00005  -0.00005  -1.02389
   D56        0.98576   0.00000   0.00000  -0.00005  -0.00005   0.98571
   D57       -0.04067   0.00000   0.00000  -0.00006  -0.00006  -0.04073
   D58        0.03024   0.00000   0.00000  -0.00013  -0.00013   0.03011
   D59        1.18476   0.00000   0.00000  -0.00006  -0.00006   1.18470
   D60       -0.63811   0.00000   0.00000   0.00022   0.00022  -0.63789
         Item               Value     Threshold  Converged?
 Maximum Force            0.000013     0.000450     YES
 RMS     Force            0.000002     0.000300     YES
 Maximum Displacement     0.000230     0.001800     YES
 RMS     Displacement     0.000054     0.001200     YES
 Predicted change in Energy=-3.016981D-09
 Optimization completed.
    -- Stationary point found.
                           ----------------------------
                           !   Optimized Parameters   !
                           ! (Angstroms and Degrees)  !
 --------------------------                            --------------------------
 ! Name  Definition              Value          Derivative Info.                !
 --------------------------------------------------------------------------------
 ! R1    R(1,2)                  1.5349         -DE/DX =    0.0                 !
 ! R2    R(1,3)                  1.5332         -DE/DX =    0.0                 !
 ! R3    R(1,4)                  1.7248         -DE/DX =    0.0                 !
 ! R4    R(1,6)                  2.2423         -DE/DX =    0.0                 !
 ! R5    R(2,18)                 2.1189         -DE/DX =    0.0                 !
 ! R6    R(2,20)                 1.7885         -DE/DX =    0.0                 !
 ! R7    R(3,17)                 2.1939         -DE/DX =    0.0                 !
 ! R8    R(3,23)                 1.7654         -DE/DX =    0.0                 !
 ! R9    R(4,5)                  1.0214         -DE/DX =    0.0                 !
 ! R10   R(4,7)                  1.4597         -DE/DX =    0.0                 !
[...]
                 (A) (A) (A) (A) (A) (A) (A) (A) (A) (A) (A) (A)
                 (A) (A) (A) (A) (A) (A) (A) (A) (A) (A) (A) (A)
                 (A) (A) (A) (A) (A) (A) (A) (A) (A) (A) (A) (A)
                 (A) (A) (A) (A) (A) (A) (A) (A) (A) (A) (A) (A)
                 (A) (A) (A) (A) (A) (A) (A) (A) (A) (A) (A) (A)
                 (A) (A) (A) (A) (A) (A) (A) (A) (A) (A) (A) (A)
                 (A) (A) (A) (A) (A) (A) (A) (A) (A) (A) (A) (A)
                 (A) (A) (A) (A) (A) (A) (A) (A) (A) (A) (A) (A)
                 (A) (A) (A) (A) (A) (A) (A) (A) (A) (A) (A) (A)
                 (A) (A) (A) (A) (A) (A) (A) (A) (A) (A) (A) (A)
                 (A) (A) (A) (A) (A) (A) (A) (A) (A) (A) (A) (A)
                 (A) (A) (A) (A) (A) (A) (A) (A) (A) (A) (A) (A)
                 (A) (A) (A) (A) (A) (A) (A) (A) (A) (A) (A) (A)
                 (A) (A) (A) (A) (A) (A) (A) (A) (A) (A) (A) (A)
                 (A) (A) (A) (A) (A) (A) (A) (A) (A) (A) (A) (A)
                 (A) (A) (A) (A) (A) (A) (A) (A) (A) (A) (A) (A)
                 (A) (A)
 The electronic state is 1-A.
 Alpha  occ. eigenvalues --  -88.86694 -77.14412 -19.13248 -19.13238 -19.12562
 Alpha  occ. eigenvalues --  -19.11383 -19.11024 -14.33138 -10.22799 -10.22558
 Alpha  occ. eigenvalues --  -10.21708  -7.92709  -6.61866  -5.89071  -5.88772
 Alpha  occ. eigenvalues --   -5.88207  -4.78200  -4.77972  -4.77858  -2.12952
 Alpha  occ. eigenvalues --   -2.12614  -2.12590  -2.11651  -2.11651  -1.00281
 Alpha  occ. eigenvalues --   -0.99507  -0.99064  -0.98433  -0.93741  -0.90400
 Alpha  occ. eigenvalues --   -0.80652  -0.71353  -0.68662  -0.64153  -0.57704
 Alpha  occ. eigenvalues --   -0.54677  -0.51075  -0.50550  -0.50309  -0.48385
 Alpha  occ. eigenvalues --   -0.47060  -0.44469  -0.42203  -0.40794  -0.40053
 Alpha  occ. eigenvalues --   -0.39212  -0.39179  -0.38189  -0.37412  -0.36332
 Alpha  occ. eigenvalues --   -0.35112  -0.31813  -0.30815  -0.30454  -0.30296
 Alpha  occ. eigenvalues --   -0.30168  -0.29440  -0.29113  -0.27792  -0.26632
 Alpha  occ. eigenvalues --   -0.25212  -0.24943  -0.22947
 Alpha virt. eigenvalues --   -0.04704  -0.00440   0.00088   0.01096   0.01475
 Alpha virt. eigenvalues --    0.02393   0.03337   0.03657   0.04069   0.05440
 Alpha virt. eigenvalues --    0.05744   0.06035   0.07836   0.07922   0.09086
 Alpha virt. eigenvalues --    0.09501   0.09840   0.10200   0.10555   0.10962
 Alpha virt. eigenvalues --    0.11632   0.12421   0.13214   0.13525   0.13766
 Alpha virt. eigenvalues --    0.14092   0.14541   0.15032   0.15425   0.15837
 Alpha virt. eigenvalues --    0.16198   0.16567   0.16773   0.17679   0.17986
 Alpha virt. eigenvalues --    0.18479   0.19024   0.19288   0.19556   0.20170
 Alpha virt. eigenvalues --    0.20699   0.21182   0.21909   0.22414   0.22623
 Alpha virt. eigenvalues --    0.23654   0.23864   0.24272   0.25043   0.25388
 Alpha virt. eigenvalues --    0.26066   0.27289   0.27564   0.27641   0.28155
 Alpha virt. eigenvalues --    0.29194   0.30045   0.31241   0.31943   0.32750
 Alpha virt. eigenvalues --    0.32791   0.33644   0.34641   0.35568   0.36542
 Alpha virt. eigenvalues --    0.37373   0.37893   0.38177   0.40106   0.40308
 Alpha virt. eigenvalues --    0.41244   0.41880   0.42472   0.43561   0.44586
 Alpha virt. eigenvalues --    0.44685   0.45541   0.46352   0.47265   0.47395
 Alpha virt. eigenvalues --    0.47804   0.50496   0.51526   0.52255   0.53164
 Alpha virt. eigenvalues --    0.54046   0.54334   0.56103   0.56676   0.57720
 Alpha virt. eigenvalues --    0.58819   0.59778   0.59961   0.60961   0.62107
 Alpha virt. eigenvalues --    0.63164   0.64490   0.65449   0.66258   0.67495
 Alpha virt. eigenvalues --    0.68709   0.69886   0.70273   0.71078   0.72439
 Alpha virt. eigenvalues --    0.73316   0.73790   0.74104   0.75771   0.76351
 Alpha virt. eigenvalues --    0.76912   0.77728   0.78176   0.79028   0.79878
 Alpha virt. eigenvalues --    0.80927   0.81311   0.82240   0.82987   0.83086
 Alpha virt. eigenvalues --    0.83509   0.84751   0.85909   0.87342   0.88489
 Alpha virt. eigenvalues --    0.89025   0.89174   0.90461   0.91087   0.91897
 Alpha virt. eigenvalues --    0.92555   0.93122   0.93584   0.94833   0.96197
 Alpha virt. eigenvalues --    0.96767   0.98149   0.99200   1.00487   1.01214
 Alpha virt. eigenvalues --    1.01853   1.02397   1.03555   1.04564   1.05195
 Alpha virt. eigenvalues --    1.05831   1.06485   1.06902   1.07712   1.09338
 Alpha virt. eigenvalues --    1.09686   1.10761   1.11548   1.12027   1.12962
 Alpha virt. eigenvalues --    1.13872   1.14667   1.15686   1.15993   1.17678
 Alpha virt. eigenvalues --    1.18158   1.18585   1.20125   1.20823   1.22207
 Alpha virt. eigenvalues --    1.22989   1.24385   1.25635   1.26849   1.27355
 Alpha virt. eigenvalues --    1.28395   1.29793   1.30307   1.32266   1.32902
 Alpha virt. eigenvalues --    1.33472   1.34846   1.37559   1.38446   1.39174
 Alpha virt. eigenvalues --    1.40549   1.41356   1.42932   1.44673   1.46977
 Alpha virt. eigenvalues --    1.48116   1.49893   1.50974   1.53786   1.55444
 Alpha virt. eigenvalues --    1.55599   1.56652   1.57772   1.60654   1.62026
 Alpha virt. eigenvalues --    1.64031   1.65306   1.65637   1.67130   1.67479
 Alpha virt. eigenvalues --    1.70461   1.73592   1.74567   1.74830   1.75684
 Alpha virt. eigenvalues --    1.76617   1.77707   1.79296   1.79519   1.80488
 Alpha virt. eigenvalues --    1.81659   1.82975   1.84687   1.85522   1.86125
 Alpha virt. eigenvalues --    1.87982   1.88737   1.90280   1.91439   1.92502
 Alpha virt. eigenvalues --    1.92897   1.94906   1.97530   1.98012   1.99539
 Alpha virt. eigenvalues --    2.01282   2.02182   2.04253   2.04619   2.07990
 Alpha virt. eigenvalues --    2.10076   2.11371   2.12798   2.15204   2.17678
 Alpha virt. eigenvalues --    2.20366   2.24074   2.25070   2.26165   2.27166
 Alpha virt. eigenvalues --    2.29431   2.32651   2.32880   2.33663   2.34803
 Alpha virt. eigenvalues --    2.36706   2.38360   2.39482   2.41628   2.42915
 Alpha virt. eigenvalues --    2.47435   2.48949   2.49751   2.51945   2.53963
 Alpha virt. eigenvalues --    2.54214   2.55368   2.58565   2.60195   2.61617
 Alpha virt. eigenvalues --    2.62520   2.64196   2.66698   2.69103   2.70913
 Alpha virt. eigenvalues --    2.72544   2.75668   2.76700   2.83340   3.10295
 Alpha virt. eigenvalues --    3.17385   3.18944   3.21006   3.21797   3.25292
 Alpha virt. eigenvalues --    3.26378   3.26851   3.29264   3.31590   3.34559
 Alpha virt. eigenvalues --    3.36689   3.37192   3.38921   3.42803   3.48275
 Alpha virt. eigenvalues --    3.50666   3.50954   3.54319   3.57744   3.58312
 Alpha virt. eigenvalues --    3.61771   3.64415   3.67806   3.74474   3.78903
 Alpha virt. eigenvalues --    3.80550   3.82111   3.89623   3.94647   4.63631
 Alpha virt. eigenvalues --    4.64951   4.76268   4.81045   4.89482   4.93782
 Alpha virt. eigenvalues --    5.00210   5.17432   5.24881   5.33651   5.40712
 Alpha virt. eigenvalues --    5.42248   5.42757   5.49119   5.49633   5.51193
 Alpha virt. eigenvalues --    5.54139   5.54548   5.57225   5.58913   5.63008
 Alpha virt. eigenvalues --    5.72413   5.79163   5.83153   6.02717   6.82745
 Alpha virt. eigenvalues --    6.84315   6.85352   6.88035   6.90224   6.99705
 Alpha virt. eigenvalues --    7.03632   8.73127   8.97795   9.11899  10.14886
 Alpha virt. eigenvalues --   13.79169  13.80183  13.88998  13.92647  14.05842
 Alpha virt. eigenvalues --   20.72808  20.79540  20.88732  20.98882  21.00520
 Alpha virt. eigenvalues --   22.05477  35.04152  35.26204  35.40553  36.81571
 Alpha virt. eigenvalues --   36.89883  36.96393  37.00449  37.00790  37.01838
 Alpha virt. eigenvalues --   37.02571  37.03778  37.06697  37.07414  37.10363
 Alpha virt. eigenvalues --   37.21027  59.13523
          Condensed to atoms (all electrons):
              1          2          3          4          5          6
     1  P   13.664771   0.021232  -0.054358   0.383078  -0.016162   0.124747
     2  O    0.021232   9.088780  -0.103318  -0.056644  -0.002856  -0.002492
     3  O   -0.054358  -0.103318   9.185072  -0.013579   0.001025   0.014553
     4  N    0.383078  -0.056644  -0.013579   7.418307   0.347054  -0.066056
     5  H   -0.016162  -0.002856   0.001025   0.347054   0.427296  -0.000840
     6  S    0.124747  -0.002492   0.014553  -0.066056  -0.000840  16.184239
     7  C   -0.514905   0.072995   0.040736  -0.583104  -0.005374   0.070137
     8  H    0.002325  -0.000444  -0.001604  -0.031615  -0.003602   0.003291
     9  H    0.005372   0.001182   0.002382  -0.040891   0.002660   0.005059
    10  C   -0.014207   0.010899  -0.016707   0.066818  -0.004994  -0.117586
    11  H    0.000958  -0.000324  -0.000064   0.001994   0.000829  -0.025441
    12  C    0.078271  -0.006825   0.004742   0.118150  -0.001479  -0.023788
    13  H   -0.001782  -0.000031  -0.001103  -0.001242  -0.000002   0.017696
    14  H    0.005156  -0.000021   0.000126   0.001883  -0.000002  -0.010422
    15  I   -0.000721  -0.000082   0.000652   0.020676  -0.000027  -0.010302
    16  O   -0.021755  -0.026205  -0.017150   0.000219  -0.000025   0.004203
    17  H    0.007510   0.000974   0.015327   0.000015  -0.000001  -0.000669
    18  H    0.009843   0.015179   0.002354   0.000188   0.000000  -0.000747
    19  O   -0.011168  -0.043440  -0.002803  -0.006401   0.005484  -0.003471
    20  H    0.020488   0.022541  -0.000668  -0.001928  -0.000734  -0.001810
    21  H    0.015073   0.004085  -0.000313   0.001950  -0.000431  -0.001240
    22  O   -0.008515  -0.001034  -0.050497  -0.001808   0.000020   0.003216
    23  H    0.010332  -0.000330   0.025045   0.000876  -0.000001  -0.002277
    24  H    0.005171  -0.000084   0.007037  -0.000265   0.000000  -0.001398
              7          8          9         10         11         12
     1  P   -0.514905   0.002325   0.005372  -0.014207   0.000958   0.078271
     2  O    0.072995  -0.000444   0.001182   0.010899  -0.000324  -0.006825
     3  O    0.040736  -0.001604   0.002382  -0.016707  -0.000064   0.004742
     4  N   -0.583104  -0.031615  -0.040891   0.066818   0.001994   0.118150
     5  H   -0.005374  -0.003602   0.002660  -0.004994   0.000829  -0.001479
     6  S    0.070137   0.003291   0.005059  -0.117586  -0.025441  -0.023788
     7  C    6.519276   0.399787   0.411325   0.081825  -0.014087  -0.405346
     8  H    0.399787   0.438936  -0.009227  -0.031518  -0.004153   0.002010
     9  H    0.411325  -0.009227   0.462446  -0.039137   0.002183   0.000543
    10  C    0.081825  -0.031518  -0.039137   6.079084   0.433893  -0.264421
    11  H   -0.014087  -0.004153   0.002183   0.433893   0.482004  -0.053089
    12  C   -0.405346   0.002010   0.000543  -0.264421  -0.053089   6.404735
    13  H   -0.006766   0.000066   0.001330  -0.030183   0.000858   0.396690
    14  H   -0.000859  -0.000068  -0.000040  -0.005662  -0.000365   0.394955
    15  I    0.040035   0.001284   0.003450  -0.045809  -0.000870   0.030264
    16  O    0.002479  -0.000001  -0.000011  -0.000075  -0.000001  -0.000135
    17  H    0.000262   0.000000   0.000000  -0.000305   0.000000   0.000061
    18  H    0.000195   0.000000   0.000000  -0.000203   0.000000   0.000019
    19  O   -0.001667  -0.000035  -0.000032   0.000020   0.000332  -0.001790
    20  H   -0.001392   0.000001   0.000000  -0.000617  -0.000004   0.000252
    21  H   -0.002986   0.000001   0.000000   0.000779  -0.000056   0.000447
    22  O   -0.000375  -0.000055   0.001780   0.009525  -0.000006  -0.033881
    23  H   -0.003878  -0.000001  -0.000148   0.000681  -0.000002   0.000771
    24  H    0.000659   0.000000  -0.000042  -0.000400   0.000000   0.002583
             13         14         15         16         17         18
     1  P   -0.001782   0.005156  -0.000721  -0.021755   0.007510   0.009843
     2  O   -0.000031  -0.000021  -0.000082  -0.026205   0.000974   0.015179
     3  O   -0.001103   0.000126   0.000652  -0.017150   0.015327   0.002354
     4  N   -0.001242   0.001883   0.020676   0.000219   0.000015   0.000188
     5  H   -0.000002  -0.000002  -0.000027  -0.000025  -0.000001   0.000000
     6  S    0.017696  -0.010422  -0.010302   0.004203  -0.000669  -0.000747
     7  C   -0.006766  -0.000859   0.040035   0.002479   0.000262   0.000195
     8  H    0.000066  -0.000068   0.001284  -0.000001   0.000000   0.000000
     9  H    0.001330  -0.000040   0.003450  -0.000011   0.000000   0.000000
    10  C   -0.030183  -0.005662  -0.045809  -0.000075  -0.000305  -0.000203
    11  H    0.000858  -0.000365  -0.000870  -0.000001   0.000000   0.000000
    12  C    0.396690   0.394955   0.030264  -0.000135   0.000061   0.000019
    13  H    0.384215  -0.003644  -0.010633  -0.000001   0.000000   0.000000
    14  H   -0.003644   0.400669  -0.011696   0.000000   0.000000   0.000000
    15  I   -0.010633  -0.011696  16.981847   0.000000   0.000000   0.000000
    16  O   -0.000001   0.000000   0.000000   8.067228   0.298421   0.296231
    17  H    0.000000   0.000000   0.000000   0.298421   0.393814  -0.015454
    18  H    0.000000   0.000000   0.000000   0.296231  -0.015454   0.388918
    19  O    0.000000   0.000000   0.000003  -0.000197   0.000002   0.000146
    20  H    0.000000   0.000000   0.000000   0.000106   0.000000   0.000027
    21  H    0.000000   0.000000   0.000000   0.000003   0.000000   0.000001
    22  O    0.013523  -0.000069   0.000507   0.000159   0.000101  -0.000003
    23  H   -0.000539   0.000006  -0.000006   0.000052   0.000030   0.000000
    24  H   -0.000771   0.000025   0.000010   0.000008   0.000001   0.000000
             19         20         21         22         23         24
     1  P   -0.011168   0.020488   0.015073  -0.008515   0.010332   0.005171
     2  O   -0.043440   0.022541   0.004085  -0.001034  -0.000330  -0.000084
     3  O   -0.002803  -0.000668  -0.000313  -0.050497   0.025045   0.007037
     4  N   -0.006401  -0.001928   0.001950  -0.001808   0.000876  -0.000265
     5  H    0.005484  -0.000734  -0.000431   0.000020  -0.000001   0.000000
     6  S   -0.003471  -0.001810  -0.001240   0.003216  -0.002277  -0.001398
     7  C   -0.001667  -0.001392  -0.002986  -0.000375  -0.003878   0.000659
     8  H   -0.000035   0.000001   0.000001  -0.000055  -0.000001   0.000000
     9  H   -0.000032   0.000000   0.000000   0.001780  -0.000148  -0.000042
    10  C    0.000020  -0.000617   0.000779   0.009525   0.000681  -0.000400
    11  H    0.000332  -0.000004  -0.000056  -0.000006  -0.000002   0.000000
    12  C   -0.001790   0.000252   0.000447  -0.033881   0.000771   0.002583
    13  H    0.000000   0.000000   0.000000   0.013523  -0.000539  -0.000771
    14  H    0.000000   0.000000   0.000000  -0.000069   0.000006   0.000025
    15  I    0.000003   0.000000   0.000000   0.000507  -0.000006   0.000010
    16  O   -0.000197   0.000106   0.000003   0.000159   0.000052   0.000008
    17  H    0.000002   0.000000   0.000000   0.000101   0.000030   0.000001
    18  H    0.000146   0.000027   0.000001  -0.000003   0.000000   0.000000
    19  O    8.126294   0.280399   0.294006  -0.000034   0.000004   0.000000
    20  H    0.280399   0.346249  -0.012139   0.000001   0.000000   0.000000
    21  H    0.294006  -0.012139   0.417359   0.000000   0.000000   0.000000
    22  O   -0.000034   0.000001   0.000000   8.134923   0.287787   0.300870
    23  H    0.000004   0.000000   0.000000   0.287787   0.331638  -0.014331
    24  H    0.000000   0.000000   0.000000   0.300870  -0.014331   0.419492
 Mulliken atomic charges:
              1
     1  P    1.289248
     2  O   -0.993737
     3  O   -1.036884
     4  N   -0.557674
     5  H    0.252160
     6  S   -0.158606
     7  C   -0.098971
     8  H    0.234623
     9  H    0.189815
    10  C   -0.111701
    11  H    0.175409
    12  C   -0.643740
    13  H    0.242320
    14  H    0.230028
    15  I    0.001417
    16  O   -0.603554
    17  H    0.299911
    18  H    0.303306
    19  O   -0.635652
    20  H    0.349227
    21  H    0.283461
    22  O   -0.656133
    23  H    0.364291
    24  H    0.281434
 Sum of Mulliken charges=  -1.00000
 Atomic charges with hydrogens summed into heavy atoms:
              1
     1  P    1.289248
     2  O   -0.993737
     3  O   -1.036884
     4  N   -0.305514
     5  H    0.000000
     6  S   -0.158606
     7  C    0.325466
     8  H    0.000000
     9  H    0.000000
    10  C    0.063708
    11  H    0.000000
    12  C   -0.171391
    13  H    0.000000
    14  H    0.000000
    15  I    0.001417
    16  O   -0.000337
    17  H    0.000000
    18  H    0.000000
    19  O   -0.002963
    20  H    0.000000
    21  H    0.000000
    22  O   -0.010407
    23  H    0.000000
    24  H    0.000000
 Sum of Mulliken charges=  -1.00000
 Electronic spatial extent (au):  <R**2>=  4780.1409
 Charge=    -1.0000 electrons
 Dipole moment (field-independent basis, Debye):
    X=   -15.0371    Y=     3.3875    Z=     3.0261  Tot=    15.7082
 Quadrupole moment (field-independent basis, Debye-Ang):
   XX=  -194.4872   YY=  -139.7464   ZZ=  -113.6133
   XY=     1.2034   XZ=     6.4692   YZ=    -3.5280
 Traceless Quadrupole moment (field-independent basis, Debye-Ang):
   XX=   -45.2049   YY=     9.5359   ZZ=    35.6690
   XY=     1.2034   XZ=     6.4692   YZ=    -3.5280
 Octapole moment (field-independent basis, Debye-Ang**2):
  XXX=  -513.0912  YYY=    -5.1933  ZZZ=    -3.9516  XYY=  -126.8811
  XXY=    44.9078  XXZ=    15.0351  XZZ=   -64.9419  YZZ=    -1.6481
  YYZ=    31.2364  XYZ=     2.9667
 Hexadecapole moment (field-independent basis, Debye-Ang**3):
 XXXX= -7165.2171 YYYY= -1762.8292 ZZZZ=  -556.4928 XXXY=   348.2205
 XXXZ=   175.7381 YYYX=  -178.8253 YYYZ=   -11.3016 ZZZX=    33.6097
 ZZZY=   -10.0540 XXYY= -1436.5049 XXZZ=  -971.1542 YYZZ=  -283.2335
 XXYZ=    -8.5506 YYXZ=    58.6900 ZZXY=     6.6275
 N-N= 1.137165329797D+03 E-N=-5.612878096264D+03  KE= 1.359664849796D+03
 Calculating spin-rotation constants.
 Leave Link  601 at Mon Jul 28 18:33:48 2008, MaxMem= 1073741824 cpu:      70.6
 (Enter /usr/local/Chem-Apps/g03_d01/g03/l9999.exe)
 1\1\ SGI ALTIX 4700 1.6GHZ/9MB-MAGELLAN\SP\RB3LYP\Gen\C3H12I1N1O5P1S1(
 1-)\IK1\28-Jul-2008\0\\#p nmr=(giao,spinspin) b3lyp/Gen scf=tight inte
 gral=(grid=ultrafine) pseudo=read scrf=(pcm,solvent=water,read) guess=
 read geom=checkpoint\\Molecule 5, NMR and scalar couplings.\\-1,1\P,0,
 -2.1227691025,-0.20805864,0.1086601268\O,0,-3.2042835029,-1.2660826489
 ,0.3672934052\O,0,-2.5030500251,1.2689247224,-0.0484790546\N,0,-1.0710
 673972,-0.7162130584,-1.16045895\H,0,-1.0298166596,-1.736756374,-1.154
 4270137\S,0,-0.53001974,-0.3526757044,1.6803237622\C,0,0.2466762901,-0
 .1092891357,-0.9995211863\H,0,0.9355428677,-0.5271142382,-1.7441970045
 \H,0,0.1529011845,0.9667316413,-1.1958120295\C,0,0.8515130176,-0.30409
 17566,0.4254747711\H,0,1.3699377888,-1.2698909573,0.488241433\C,0,1.78
 1209489,0.8218158613,0.8324562769\H,0,1.3228572007,1.8054479359,0.6858
 38802\H,0,2.1697070388,0.7078430407,1.8462500297\I,0,3.6600786242,0.85
 7076027,-0.4072090516\O,0,-5.4402516927,0.7103332644,0.4589865898\H,0,
 -4.6751254254,1.2746165594,0.2603882866\H,0,-5.0065945315,-0.159353277
 8,0.4952505112\O,0,-1.9260316502,-3.7009555867,0.1244109578\H,0,-2.500
 4611246,-2.9043141248,0.2278087586\H,0,-1.3867746964,-3.6807631104,0.9
 238784206\O,0,-0.7107502974,3.2948266491,0.4560691261\H,0,-1.366185894
 3,2.5903409415,0.231148893\H,0,-0.8074345317,3.3814605102,1.4110271396
 \\Version=IA64L-G03RevD.01\State=1-A\HF=-1403.9187051\RMSD=5.987e-09\T
 hermal=0.\Dipole=6.15271,-0.2202046,0.5375852\PG=C01 [X(C3H12I1N1O5P1S
 1)]\\@


 You don't have to suffer to be a poet.
 Adolescence is enough suffering for anyone.
                             -- John Ciardi
 Job cpu time:  0 days  2 hours  3 minutes  2.4 seconds.
 File lengths (MBytes):  RWF=   1277 Int=      0 D2E=      0 Chk=     23 Scr=      1
 Normal termination of Gaussian 03 at Mon Jul 28 18:33:49 2008.
