 Entering Gaussian System, Link 0=/usr/local/Chem-Apps/g03_d01/g03/g03
 Initial command:
 /usr/local/Chem-Apps/g03_d01/g03/l1.exe /scratch/LSF_69098/Gau-24483.inp -scrdir=/scratch/LSF_69098/
 Entering Link 1 = /usr/local/Chem-Apps/g03_d01/g03/l1.exe PID=     24484.
  
 Copyright (c) 1988,1990,1992,1993,1995,1998,2003,2004, Gaussian, Inc.
                  All Rights Reserved.
  
 This is the Gaussian(R) 03 program.  It is based on the
 the Gaussian(R) 98 system (copyright 1998, Gaussian, Inc.),
 the Gaussian(R) 94 system (copyright 1995, Gaussian, Inc.),
 the Gaussian 92(TM) system (copyright 1992, Gaussian, Inc.),
 the Gaussian 90(TM) system (copyright 1990, Gaussian, Inc.),
 the Gaussian 88(TM) system (copyright 1988, Gaussian, Inc.),
 the Gaussian 86(TM) system (copyright 1986, Carnegie Mellon
 University), and the Gaussian 82(TM) system (copyright 1983,
 Carnegie Mellon University). Gaussian is a federally registered
 trademark of Gaussian, Inc.
  
 This software contains proprietary and confidential information,
 including trade secrets, belonging to Gaussian, Inc.
  
 This software is provided under written license and may be
 used, copied, transmitted, or stored only in accord with that
 written license.
  
 The following legend is applicable only to US Government
 contracts under FAR:
  
                    RESTRICTED RIGHTS LEGEND
  
 Use, reproduction and disclosure by the US Government is
 subject to restrictions as set forth in subparagraphs (a)
 and (c) of the Commercial Computer Software - Restricted
 Rights clause in FAR 52.227-19.
  
 Gaussian, Inc.
 340 Quinnipiac St., Bldg. 40, Wallingford CT 06492
  
  
 ---------------------------------------------------------------
 Warning -- This program may not be used in any manner that
 competes with the business of Gaussian, Inc. or will provide
 assistance to any competitor of Gaussian, Inc.  The licensee
 of this program is prohibited from giving any competitor of
 Gaussian, Inc. access to this program.  By using this program,
 the user acknowledges that Gaussian, Inc. is engaged in the
 business of creating and licensing software in the field of
 computational chemistry and represents and warrants to the
 licensee that it is not a competitor of Gaussian, Inc. and that
 it will not use this program in any manner prohibited above.
 ---------------------------------------------------------------
  

 Cite this work as:
 Gaussian 03, Revision D.01,
 M. J. Frisch, G. W. Trucks, H. B. Schlegel, G. E. Scuseria, 
 M. A. Robb, J. R. Cheeseman, J. A. Montgomery, Jr., T. Vreven, 
 K. N. Kudin, J. C. Burant, J. M. Millam, S. S. Iyengar, J. Tomasi, 
 V. Barone, B. Mennucci, M. Cossi, G. Scalmani, N. Rega, 
 G. A. Petersson, H. Nakatsuji, M. Hada, M. Ehara, K. Toyota, 
 R. Fukuda, J. Hasegawa, M. Ishida, T. Nakajima, Y. Honda, O. Kitao, 
 H. Nakai, M. Klene, X. Li, J. E. Knox, H. P. Hratchian, J. B. Cross, 
 V. Bakken, C. Adamo, J. Jaramillo, R. Gomperts, R. E. Stratmann, 
 O. Yazyev, A. J. Austin, R. Cammi, C. Pomelli, J. W. Ochterski, 
 P. Y. Ayala, K. Morokuma, G. A. Voth, P. Salvador, J. J. Dannenberg, 
 V. G. Zakrzewski, S. Dapprich, A. D. Daniels, M. C. Strain, 
 O. Farkas, D. K. Malick, A. D. Rabuck, K. Raghavachari, 
 J. B. Foresman, J. V. Ortiz, Q. Cui, A. G. Baboul, S. Clifford, 
 J. Cioslowski, B. B. Stefanov, G. Liu, A. Liashenko, P. Piskorz, 
 I. Komaromi, R. L. Martin, D. J. Fox, T. Keith, M. A. Al-Laham, 
 C. Y. Peng, A. Nanayakkara, M. Challacombe, P. M. W. Gill, 
 B. Johnson, W. Chen, M. W. Wong, C. Gonzalez, and J. A. Pople, 
 Gaussian, Inc., Wallingford CT, 2004.
 
 ******************************************
 Gaussian 03:  IA64L-G03RevD.01 13-Oct-2005
                 2-Aug-2008 
 ******************************************
 %Mem=4GB
 %NProcShared=16
 Will use up to   16 processors via shared memory.
 %Chk=molecule_3.chk
 Default route:  MaxDisk=64GB Cachesize=589840
 ------------------------------------------------------------------
 #p opt=gdiis b3lyp/aug-cc-pVDZ scf=tight integral=(grid=ultrafine)
 ------------------------------------------------------------------
 1/4=589840,14=-1,18=20,19=11,26=3,38=1/1,3;
 2/4=589840,9=110,17=6,18=5,40=1/2;
 3/4=589840,5=16,7=10,11=2,16=1,25=1,30=1,74=-5,75=5/1,2,3;
 4/4=589840/1;
 5/4=589840,5=2,32=2,38=5/2;
 6/4=589840,7=2,8=2,9=2,10=2,28=1/1;
 7/4=589840/1,2,3,16;
 1/4=589840,14=-1,18=20,19=11/3(3);
 2/4=589840,9=110/2;
 6/4=589840,7=2,8=2,9=2,10=2,19=2,28=1/1;
 99/4=589840/99;
 2/4=589840,9=110/2;
 3/4=589840,5=16,7=10,11=2,16=1,25=1,30=1,74=-5,75=5/1,2,3;
 4/4=589840,5=5,16=3/1;
 5/4=589840,5=2,32=2,38=5/2;
 7/4=589840/1,2,3,16;
 1/4=589840,14=-1,18=20,19=11/3(-5);
 2/4=589840,9=110/2;
 6/4=589840,7=2,8=2,9=2,10=2,19=2,28=1/1;
 99/4=589840,9=1/99;
 Leave Link    1 at Sat Aug  2 14:48:08 2008, MaxMem=  536870912 cpu:       2.7
 (Enter /usr/local/Chem-Apps/g03_d01/g03/l101.exe)
 ---------------------
 Molecule 3, geometry.
 ---------------------
 Symbolic Z-matrix:
 Charge = -1 Multiplicity = 1
 C                    -1.69668   0.09663  -0.60776 
 H                    -1.31143   0.46003  -1.57083 
 H                    -1.82797   0.96997   0.04134 
 N                    -0.62119  -0.73928  -0.0283 
 H                    -0.85925  -1.08136   0.91116 
 P                     1.15434   0.15724   0.28737 
 O                     1.87391  -1.1354    0.74928 
 O                     0.72073   1.15403   1.38458 
 S                     1.6013    0.88041  -1.54412 
 O                    -0.04659  -1.16589   2.94025 
 H                     0.7387   -1.50082   2.46654 
 H                     0.08036  -0.20735   2.8008 
 O                     1.18926  -2.67675  -1.443 
 H                     1.60115  -2.31345  -0.62104 
 H                     1.43447  -1.99352  -2.08562 
 O                    -0.35366   3.44941   0.18127 
 H                     0.01025   2.72692   0.74003 
 H                     0.08878   3.26304  -0.65908 
 H                    -0.37871  -1.5448   -0.6202 
 C                    -3.01388  -0.68054  -0.78828 
 H                    -3.35216  -1.03491   0.16297 
 H                    -2.85063  -1.51231  -1.44128 
 C                    -4.07918   0.24946  -1.39807 
 H                    -4.37124   1.13826  -0.87881 
 C                    -4.64801  -0.05398  -2.59009 
 H                    -4.36004  -0.94138  -3.11402 
 H                    -5.38765   0.59606  -3.00876 
 
                    Isotopes and Nuclear Properties:
 (Nuclear quadrupole moments (NQMom) in fm**2, nuclear magnetic moments (NMagM)
  in nuclear magnetons)

  Atom         1           2           3           4           5           6           7           8           9          10
 IAtWgt=          12           1           1          14           1          31          16          16          32          16
 AtmWgt=  12.0000000   1.0078250   1.0078250  14.0030740   1.0078250  30.9737634  15.9949146  15.9949146  31.9720718  15.9949146
 NucSpn=           0           1           1           2           1           1           0           0           0           0
 AtZEff=   0.0000000   0.0000000   0.0000000   0.0000000   0.0000000   0.0000000   0.0000000   0.0000000   0.0000000   0.0000000
 NQMom=    0.0000000   0.0000000   0.0000000   2.0440000   0.0000000   0.0000000   0.0000000   0.0000000   0.0000000   0.0000000
 NMagM=    0.0000000   2.7928460   2.7928460   0.4037610   2.7928460   1.1316000   0.0000000   0.0000000   0.0000000   0.0000000

  Atom        11          12          13          14          15          16          17          18          19          20
 IAtWgt=           1           1          16           1           1          16           1           1           1          12
 AtmWgt=   1.0078250   1.0078250  15.9949146   1.0078250   1.0078250  15.9949146   1.0078250   1.0078250   1.0078250  12.0000000
 NucSpn=           1           1           0           1           1           0           1           1           1           0
 AtZEff=   0.0000000   0.0000000   0.0000000   0.0000000   0.0000000   0.0000000   0.0000000   0.0000000   0.0000000   0.0000000
 NQMom=    0.0000000   0.0000000   0.0000000   0.0000000   0.0000000   0.0000000   0.0000000   0.0000000   0.0000000   0.0000000
 NMagM=    2.7928460   2.7928460   0.0000000   2.7928460   2.7928460   0.0000000   2.7928460   2.7928460   2.7928460   0.0000000

  Atom        21          22          23          24          25          26          27
 IAtWgt=           1           1          12           1          12           1           1
 AtmWgt=   1.0078250   1.0078250  12.0000000   1.0078250  12.0000000   1.0078250   1.0078250
 NucSpn=           1           1           0           1           0           1           1
 AtZEff=   0.0000000   0.0000000   0.0000000   0.0000000   0.0000000   0.0000000   0.0000000
 NQMom=    0.0000000   0.0000000   0.0000000   0.0000000   0.0000000   0.0000000   0.0000000
 NMagM=    2.7928460   2.7928460   0.0000000   2.7928460   0.0000000   2.7928460   2.7928460
 Leave Link  101 at Sat Aug  2 14:48:08 2008, MaxMem=  536870912 cpu:       0.8
 (Enter /usr/local/Chem-Apps/g03_d01/g03/l103.exe)

 GradGradGradGradGradGradGradGradGradGradGradGradGradGradGradGradGradGrad
 Berny optimization.
 Initialization pass.
                           ----------------------------
                           !    Initial Parameters    !
                           ! (Angstroms and Degrees)  !
 --------------------------                            --------------------------
 ! Name  Definition              Value          Derivative Info.                !
 --------------------------------------------------------------------------------
 ! R1    R(1,2)                  1.0991         estimate D2E/DX2                !
 ! R2    R(1,3)                  1.096          estimate D2E/DX2                !
 ! R3    R(1,4)                  1.4803         estimate D2E/DX2                !
 ! R4    R(1,20)                 1.54           estimate D2E/DX2                !
 ! R5    R(4,5)                  1.0277         estimate D2E/DX2                !
 ! R6    R(4,6)                  2.0139         estimate D2E/DX2                !
 ! R7    R(4,19)                 1.0286         estimate D2E/DX2                !
 ! R8    R(5,10)                 2.1874         estimate D2E/DX2                !
 ! R9    R(6,7)                  1.5499         estimate D2E/DX2                !
 ! R10   R(6,8)                  1.5445         estimate D2E/DX2                !
 ! R11   R(6,9)                  2.0192         estimate D2E/DX2                !
 ! R12   R(7,11)                 2.0907         estimate D2E/DX2                !
 ! R13   R(7,14)                 1.8276         estimate D2E/DX2                !
 ! R14   R(8,12)                 2.0662         estimate D2E/DX2                !
 ! R15   R(8,17)                 1.8423         estimate D2E/DX2                !
 ! R16   R(10,11)                0.9763         estimate D2E/DX2                !
 ! R17   R(10,12)                0.9769         estimate D2E/DX2                !
 ! R18   R(13,14)                0.9886         estimate D2E/DX2                !
 ! R19   R(13,15)                0.9695         estimate D2E/DX2                !
 ! R20   R(13,19)                2.1016         estimate D2E/DX2                !
 ! R21   R(16,17)                0.9832         estimate D2E/DX2                !
 ! R22   R(16,18)                0.9678         estimate D2E/DX2                !
 ! R23   R(20,21)                1.07           estimate D2E/DX2                !
 ! R24   R(20,22)                1.07           estimate D2E/DX2                !
 ! R25   R(20,23)                1.54           estimate D2E/DX2                !
 ! R26   R(23,24)                1.07           estimate D2E/DX2                !
 ! R27   R(23,25)                1.3552         estimate D2E/DX2                !
 ! R28   R(25,26)                1.07           estimate D2E/DX2                !
 ! R29   R(25,27)                1.07           estimate D2E/DX2                !
 ! A1    A(2,1,3)              107.3054         estimate D2E/DX2                !
 ! A2    A(2,1,4)              105.9651         estimate D2E/DX2                !
 ! A3    A(2,1,20)             111.3429         estimate D2E/DX2                !
 ! A4    A(3,1,4)              107.7685         estimate D2E/DX2                !
 ! A5    A(3,1,20)             111.659          estimate D2E/DX2                !
 ! A6    A(4,1,20)             112.4792         estimate D2E/DX2                !
 ! A7    A(1,4,5)              112.1778         estimate D2E/DX2                !
 ! A8    A(1,4,6)              116.777          estimate D2E/DX2                !
 ! A9    A(1,4,19)             112.8457         estimate D2E/DX2                !
 ! A10   A(5,4,6)              102.07           estimate D2E/DX2                !
 ! A11   A(5,4,19)             108.6604         estimate D2E/DX2                !
 ! A12   A(6,4,19)             103.355          estimate D2E/DX2                !
 ! A13   A(4,5,10)             140.7809         estimate D2E/DX2                !
 ! A14   A(4,6,7)               94.862          estimate D2E/DX2                !
 ! A15   A(4,6,8)               98.6928         estimate D2E/DX2                !
 ! A16   A(4,6,9)              102.2639         estimate D2E/DX2                !
 ! A17   A(7,6,8)              117.1867         estimate D2E/DX2                !
 ! A18   A(7,6,9)              117.7925         estimate D2E/DX2                !
 ! A19   A(8,6,9)              118.3831         estimate D2E/DX2                !
 ! A20   A(6,7,11)              97.9598         estimate D2E/DX2                !
 ! A21   A(6,7,14)             104.1737         estimate D2E/DX2                !
 ! A22   A(11,7,14)            114.9714         estimate D2E/DX2                !
 ! A23   A(6,8,12)              98.5523         estimate D2E/DX2                !
 ! A24   A(6,8,17)             114.2499         estimate D2E/DX2                !
 ! A25   A(12,8,17)            133.0632         estimate D2E/DX2                !
 ! A26   A(5,10,11)             82.0686         estimate D2E/DX2                !
 ! A27   A(5,10,12)             82.9895         estimate D2E/DX2                !
 ! A28   A(11,10,12)            99.3707         estimate D2E/DX2                !
 ! A29   A(7,11,10)            140.8294         estimate D2E/DX2                !
 ! A30   A(8,12,10)            141.6842         estimate D2E/DX2                !
 ! A31   A(14,13,15)           100.7639         estimate D2E/DX2                !
 ! A32   A(14,13,19)            77.7247         estimate D2E/DX2                !
 ! A33   A(15,13,19)            93.9356         estimate D2E/DX2                !
 ! A34   A(7,14,13)            157.2971         estimate D2E/DX2                !
 ! A35   A(17,16,18)           100.5297         estimate D2E/DX2                !
 ! A36   A(8,17,16)            165.6844         estimate D2E/DX2                !
 ! A37   A(4,19,13)            145.383          estimate D2E/DX2                !
 ! A38   A(1,20,21)            109.4712         estimate D2E/DX2                !
 ! A39   A(1,20,22)            109.4712         estimate D2E/DX2                !
 ! A40   A(1,20,23)            109.4712         estimate D2E/DX2                !
 ! A41   A(21,20,22)           109.4712         estimate D2E/DX2                !
 ! A42   A(21,20,23)           109.4713         estimate D2E/DX2                !
 ! A43   A(22,20,23)           109.4712         estimate D2E/DX2                !
 ! A44   A(20,23,24)           119.8865         estimate D2E/DX2                !
 ! A45   A(20,23,25)           120.2269         estimate D2E/DX2                !
 ! A46   A(24,23,25)           119.8865         estimate D2E/DX2                !
 ! A47   A(23,25,26)           120.2269         estimate D2E/DX2                !
 ! A48   A(23,25,27)           119.8865         estimate D2E/DX2                !
 ! A49   A(26,25,27)           119.8865         estimate D2E/DX2                !
 ! D1    D(2,1,4,5)            176.2445         estimate D2E/DX2                !
 ! D2    D(2,1,4,6)             58.9448         estimate D2E/DX2                !
 ! D3    D(2,1,4,19)           -60.6165         estimate D2E/DX2                !
 ! D4    D(3,1,4,5)             61.6259         estimate D2E/DX2                !
 ! D5    D(3,1,4,6)            -55.6738         estimate D2E/DX2                !
 ! D6    D(3,1,4,19)          -175.2351         estimate D2E/DX2                !
 ! D7    D(20,1,4,5)           -61.8813         estimate D2E/DX2                !
 ! D8    D(20,1,4,6)          -179.181          estimate D2E/DX2                !
 ! D9    D(20,1,4,19)           61.2577         estimate D2E/DX2                !
 ! D10   D(2,1,20,21)          178.981          estimate D2E/DX2                !
 ! D11   D(2,1,20,22)           58.981          estimate D2E/DX2                !
 ! D12   D(2,1,20,23)          -61.019          estimate D2E/DX2                !
 ! D13   D(3,1,20,21)          -61.0984         estimate D2E/DX2                !
 ! D14   D(3,1,20,22)          178.9016         estimate D2E/DX2                !
 ! D15   D(3,1,20,23)           58.9016         estimate D2E/DX2                !
 ! D16   D(4,1,20,21)           60.2124         estimate D2E/DX2                !
 ! D17   D(4,1,20,22)          -59.7876         estimate D2E/DX2                !
 ! D18   D(4,1,20,23)         -179.7876         estimate D2E/DX2                !
 ! D19   D(1,4,5,10)          -128.2422         estimate D2E/DX2                !
 ! D20   D(6,4,5,10)            -2.4619         estimate D2E/DX2                !
 ! D21   D(19,4,5,10)          106.2934         estimate D2E/DX2                !
 ! D22   D(1,4,6,7)           -175.4812         estimate D2E/DX2                !
 ! D23   D(1,4,6,8)             66.0373         estimate D2E/DX2                !
 ! D24   D(1,4,6,9)            -55.6548         estimate D2E/DX2                !
 ! D25   D(5,4,6,7)             61.8155         estimate D2E/DX2                !
 ! D26   D(5,4,6,8)            -56.666          estimate D2E/DX2                !
 ! D27   D(5,4,6,9)           -178.3581         estimate D2E/DX2                !
 ! D28   D(19,4,6,7)           -50.9556         estimate D2E/DX2                !
 ! D29   D(19,4,6,8)          -169.4371         estimate D2E/DX2                !
 ! D30   D(19,4,6,9)            68.8707         estimate D2E/DX2                !
 ! D31   D(1,4,19,13)          135.5055         estimate D2E/DX2                !
 ! D32   D(5,4,19,13)          -99.4215         estimate D2E/DX2                !
 ! D33   D(6,4,19,13)            8.4581         estimate D2E/DX2                !
 ! D34   D(4,5,10,11)          -49.2569         estimate D2E/DX2                !
 ! D35   D(4,5,10,12)           51.2739         estimate D2E/DX2                !
 ! D36   D(4,6,7,11)           -63.5531         estimate D2E/DX2                !
 ! D37   D(4,6,7,14)            54.8044         estimate D2E/DX2                !
 ! D38   D(8,6,7,11)            38.8162         estimate D2E/DX2                !
 ! D39   D(8,6,7,14)           157.1736         estimate D2E/DX2                !
 ! D40   D(9,6,7,11)          -170.1607         estimate D2E/DX2                !
 ! D41   D(9,6,7,14)           -51.8032         estimate D2E/DX2                !
 ! D42   D(4,6,8,12)            60.4841         estimate D2E/DX2                !
 ! D43   D(4,6,8,17)           -85.1092         estimate D2E/DX2                !
 ! D44   D(7,6,8,12)           -39.5899         estimate D2E/DX2                !
 ! D45   D(7,6,8,17)           174.8168         estimate D2E/DX2                !
 ! D46   D(9,6,8,12)           169.5622         estimate D2E/DX2                !
 ! D47   D(9,6,8,17)            23.9689         estimate D2E/DX2                !
 ! D48   D(6,7,11,10)            5.8429         estimate D2E/DX2                !
 ! D49   D(14,7,11,10)        -103.9035         estimate D2E/DX2                !
 ! D50   D(6,7,14,13)          -15.4777         estimate D2E/DX2                !
 ! D51   D(11,7,14,13)          90.4943         estimate D2E/DX2                !
 ! D52   D(6,8,12,10)           -3.3782         estimate D2E/DX2                !
 ! D53   D(17,8,12,10)         131.7779         estimate D2E/DX2                !
 ! D54   D(6,8,17,16)            7.4783         estimate D2E/DX2                !
 ! D55   D(12,8,17,16)        -122.6305         estimate D2E/DX2                !
 ! D56   D(5,10,11,7)           42.6711         estimate D2E/DX2                !
 ! D57   D(12,10,11,7)         -38.8244         estimate D2E/DX2                !
 ! D58   D(5,10,12,8)          -42.9551         estimate D2E/DX2                !
 ! D59   D(11,10,12,8)          37.7683         estimate D2E/DX2                !
 ! D60   D(15,13,14,7)          63.8161         estimate D2E/DX2                !
 ! D61   D(19,13,14,7)         -27.9107         estimate D2E/DX2                !
 ! D62   D(14,13,19,4)          27.3445         estimate D2E/DX2                !
 ! D63   D(15,13,19,4)         -72.8282         estimate D2E/DX2                !
 ! D64   D(18,16,17,8)         -28.3225         estimate D2E/DX2                !
 ! D65   D(1,20,23,24)         -60.0            estimate D2E/DX2                !
 ! D66   D(1,20,23,25)         120.0            estimate D2E/DX2                !
 ! D67   D(21,20,23,24)         60.0            estimate D2E/DX2                !
 ! D68   D(21,20,23,25)       -120.0            estimate D2E/DX2                !
 ! D69   D(22,20,23,24)        180.0            estimate D2E/DX2                !
 ! D70   D(22,20,23,25)          0.0            estimate D2E/DX2                !
 ! D71   D(20,23,25,26)          0.0            estimate D2E/DX2                !
 ! D72   D(20,23,25,27)        180.0            estimate D2E/DX2                !
 ! D73   D(24,23,25,26)        180.0            estimate D2E/DX2                !
 ! D74   D(24,23,25,27)          0.0            estimate D2E/DX2                !
 --------------------------------------------------------------------------------
 Trust Radius=3.00D-01 FncErr=1.00D-07 GrdErr=1.00D-06
 Number of steps in this run= 162 maximum allowed number of steps= 162.
 GradGradGradGradGradGradGradGradGradGradGradGradGradGradGradGradGradGrad

 Leave Link  103 at Sat Aug  2 14:48:09 2008, MaxMem=  536870912 cpu:       1.0
 (Enter /usr/local/Chem-Apps/g03_d01/g03/l202.exe)
                          Input orientation:                          
 ---------------------------------------------------------------------
 Center     Atomic     Atomic              Coordinates (Angstroms)
 Number     Number      Type              X           Y           Z
 ---------------------------------------------------------------------
    1          6             0       -1.696679    0.096628   -0.607756
    2          1             0       -1.311428    0.460028   -1.570833
    3          1             0       -1.827971    0.969965    0.041335
    4          7             0       -0.621187   -0.739283   -0.028301
    5          1             0       -0.859252   -1.081359    0.911155
    6         15             0        1.154337    0.157239    0.287370
    7          8             0        1.873907   -1.135399    0.749280
    8          8             0        0.720725    1.154025    1.384583
    9         16             0        1.601296    0.880414   -1.544115
   10          8             0       -0.046585   -1.165892    2.940246
   11          1             0        0.738702   -1.500819    2.466544
   12          1             0        0.080358   -0.207345    2.800800
   13          8             0        1.189259   -2.676753   -1.443001
   14          1             0        1.601151   -2.313454   -0.621043
   15          1             0        1.434466   -1.993523   -2.085622
   16          8             0       -0.353658    3.449413    0.181266
   17          1             0        0.010254    2.726918    0.740029
   18          1             0        0.088780    3.263035   -0.659082
   19          1             0       -0.378709   -1.544800   -0.620198
   20          6             0       -3.013883   -0.680537   -0.788280
   21          1             0       -3.352161   -1.034914    0.162974
   22          1             0       -2.850629   -1.512307   -1.441279
   23          6             0       -4.079180    0.249462   -1.398069
   24          1             0       -4.371236    1.138265   -0.878807
   25          6             0       -4.648011   -0.053981   -2.590093
   26          1             0       -4.360035   -0.941375   -3.114022
   27          1             0       -5.387646    0.596060   -3.008765
 ---------------------------------------------------------------------
                    Distance matrix (angstroms):
                    1          2          3          4          5
     1  C    0.000000
     2  H    1.099088   0.000000
     3  H    1.096027   1.768032   0.000000
     4  N    1.480270   2.072241   2.093491   0.000000
     5  H    2.096671   2.956451   2.429595   1.027749   0.000000
     6  P    2.988849   3.102353   3.100841   2.013923   2.444949
     7  O    4.013542   4.251432   4.317134   2.643300   2.738482
     8  O    3.306258   3.653185   2.886875   2.716907   2.778021
     9  S    3.516778   2.943026   3.779093   3.140150   3.991391
    10  O    4.111579   4.959161   4.017326   3.053594   2.187415
    11  H    4.234883   4.934406   4.309782   2.941681   2.269061
    12  H    3.855971   4.636122   3.555619   2.962927   2.284190
    13  O    4.088755   4.013623   4.960391   3.005475   3.504815
    14  H    4.084649   4.132484   4.793586   2.787139   3.149488
    15  H    4.044365   3.718179   4.893843   3.167238   3.882507
    16  O    3.696949   3.594940   2.888052   4.202459   4.616953
    17  H    3.413000   3.496529   2.637068   3.606050   3.910025
    18  H    3.635469   3.263238   3.069640   4.113452   4.715736
    19  H    2.105109   2.406867   2.976916   1.028589   1.670551
    20  C    1.540000   2.193543   2.195178   2.511177   2.773296
    21  H    2.148263   3.066844   2.521406   2.753580   2.603176
    22  H    2.148263   2.505201   3.066863   2.750361   3.112113
    23  C    2.514809   2.781122   2.767481   3.848584   4.179897
    24  H    2.883007   3.209569   2.709831   4.279184   4.523796
    25  C    3.558469   3.526455   3.990677   4.821590   5.260127
    26  H    3.801616   3.693152   4.474466   4.851959   5.336397
    27  H    4.431424   4.324547   4.702574   5.778013   6.219796
                    6          7          8          9         10
     6  P    0.000000
     7  O    1.549856   0.000000
     8  O    1.544499   2.641004   0.000000
     9  S    2.019181   3.065531   3.070430   0.000000
    10  O    3.198537   2.913683   2.896699   5.197343   0.000000
    11  H    2.769604   2.090746   2.866908   4.743387   0.976343
    12  H    2.757478   2.878687   2.066172   4.730196   0.976920
    13  O    3.320680   2.765974   4.784309   3.582378   4.798215
    14  H    2.670053   1.827565   4.101353   3.324583   4.088363
    15  H    3.214862   2.994354   4.739072   2.929262   5.304511
    16  O    3.622667   5.128858   2.805544   3.660402   5.385843
    17  H    2.849048   4.288447   1.842339   3.340405   4.471930
    18  H    3.417185   4.951402   3.003971   2.957680   5.708667
    19  H    2.463909   2.667838   3.537168   3.264308   3.595920
    20  C    4.385538   5.144072   4.694065   4.930287   4.789815
    21  H    4.663178   5.259813   4.782487   5.578474   4.319401
    22  H    4.670692   5.221289   5.277253   5.055228   5.213486
    23  C    5.498992   6.478286   5.621430   5.717276   6.089830
    24  H    5.731870   6.842662   5.572365   6.015003   6.212641
    25  C    6.480096   7.406503   6.788273   6.404764   7.279706
    26  H    6.571508   7.336538   7.102272   6.428141   7.437098
    27  H    7.338570   8.357691   7.544868   7.146424   8.186705
                   11         12         13         14         15
    11  H    0.000000
    12  H    1.489369   0.000000
    13  O    4.107355   5.033635   0.000000
    14  H    3.307172   4.296221   0.988563   0.000000
    15  H    4.631313   5.375980   0.969480   1.508354   0.000000
    16  O    5.560624   4.519094   6.522940   6.138046   6.161308
    17  H    4.624419   3.586306   5.946035   5.457914   5.682891
    18  H    5.734653   4.900448   6.091524   5.778057   5.610462
    19  H    3.283065   3.701723   2.101629   2.123835   2.374115
    20  C    5.034743   4.762324   4.698929   4.898257   4.816101
    21  H    4.717908   4.407401   5.089134   5.175388   5.374655
    22  H    5.306083   5.318726   4.204359   4.597061   4.359907
    23  C    6.419557   5.927979   6.026708   6.280006   5.991995
    24  H    6.653390   5.930166   6.766962   6.902913   6.706018
    25  C    7.528585   7.172358   6.501421   6.930685   6.404127
    26  H    7.579764   7.432430   6.049670   6.605550   5.978366
    27  H    8.479861   8.018452   7.511232   7.937869   7.355226
                   16         17         18         19         20
    16  O    0.000000
    17  H    0.983182   0.000000
    18  H    0.967819   1.500366   0.000000
    19  H    5.058175   4.499898   4.830666   0.000000
    20  C    5.007325   4.805401   5.019459   2.778370   0.000000
    21  H    5.394492   5.078406   5.566706   3.116851   1.070000
    22  H    5.786725   5.560017   5.661789   2.604922   1.070000
    23  C    5.158828   5.237626   5.196116   4.185445   1.540000
    24  H    4.754587   4.933752   4.945166   4.817259   2.271265
    25  C    6.196424   6.365732   6.096605   4.932541   2.511867
    26  H    6.796249   6.885457   6.595131   4.736479   2.699859
    27  H    6.607493   6.908787   6.528783   5.947939   3.492135
                   21         22         23         24         25
    21  H    0.000000
    22  H    1.747303   0.000000
    23  C    2.148263   2.148263   0.000000
    24  H    2.616587   3.107113   1.070000   0.000000
    25  C    3.197004   2.584002   1.355200   2.103938   0.000000
    26  H    3.429762   2.324293   2.107479   3.053066   1.070000
    27  H    4.106483   3.652215   2.103938   2.421527   1.070000
                   26         27
    26  H    0.000000
    27  H    1.852234   0.000000
 Stoichiometry    C4H15NO5PS(1-)
 Framework group  C1[X(C4H15NO5PS)]
 Deg. of freedom    75
 Full point group                 C1
 Largest Abelian subgroup         C1      NOp   1
 Largest concise Abelian subgroup C1      NOp   1
                         Standard orientation:                         
 ---------------------------------------------------------------------
 Center     Atomic     Atomic              Coordinates (Angstroms)
 Number     Number      Type              X           Y           Z
 ---------------------------------------------------------------------
    1          6             0       -1.425609    0.022636    0.189965
    2          1             0       -1.445915    0.312907   -0.869905
    3          1             0       -1.341568    0.943348    0.778607
    4          7             0       -0.176125   -0.748735    0.376984
    5          1             0       -0.029315   -1.017570    1.358026
    6         15             0        1.547471    0.195262   -0.063436
    7          8             0        2.443100   -1.045789    0.180891
    8          8             0        1.514323    1.270736    1.044596
    9         16             0        1.242940    0.775223   -1.973410
   10          8             0        1.488007   -0.927332    2.931040
   11          1             0        2.051981   -1.288093    2.220384
   12          1             0        1.511669    0.018614    2.688144
   13          8             0        1.053618   -2.767795   -1.478821
   14          1             0        1.727592   -2.333854   -0.900280
   15          1             0        1.009975   -2.134997   -2.212001
   16          8             0       -0.031458    3.446621    0.180211
   17          1             0        0.546450    2.776565    0.608806
   18          1             0        0.071071    3.199614   -0.749923
   19          1             0       -0.138698   -1.595687   -0.205482
   20          6             0       -2.679298   -0.785066    0.573996
   21          1             0       -2.620323   -1.066630    1.604599
   22          1             0       -2.737013   -1.664212   -0.033188
   23          6             0       -3.934802    0.077787    0.348618
   24          1             0       -4.048995    1.001211    0.876962
   25          6             0       -4.895512   -0.328445   -0.516587
   26          1             0       -4.786909   -1.250898   -1.047799
   27          1             0       -5.765631    0.275340   -0.669023
 ---------------------------------------------------------------------
 Rotational constants (GHZ):      0.6307810      0.3749471      0.3504536
 Leave Link  202 at Sat Aug  2 14:48:09 2008, MaxMem=  536870912 cpu:       0.4
 (Enter /usr/local/Chem-Apps/g03_d01/g03/l301.exe)
 Standard basis: Aug-CC-pVDZ (5D, 7F)
 There are   419 symmetry adapted basis functions of A   symmetry.
 Integral buffers will be    131072 words long.
 Raffenetti 2 integral format.
 Two-electron integral symmetry is turned on.
   419 basis functions,   761 primitive gaussians,   443 cartesian basis functions
    59 alpha electrons       59 beta electrons
       nuclear repulsion energy      1032.1571634444 Hartrees.
 IExCor= 402 DFT=T Ex=B+HF Corr=LYP ExCW=0 ScaHFX=  0.200000
 ScaDFX=  0.800000  0.720000  1.000000  0.810000
 IRadAn=      5 IRanWt=     -1 IRanGd=            0 ICorTp=0
 NAtoms=   27 NActive=   27 NUniq=   27 SFac= 7.50D-01 NAtFMM=   80 NAOKFM=F Big=F
 Leave Link  301 at Sat Aug  2 14:48:10 2008, MaxMem=  536870912 cpu:       0.8
 (Enter /usr/local/Chem-Apps/g03_d01/g03/l302.exe)
 NPDir=0 NMtPBC=     1 NCelOv=     1 NCel=       1 NClECP=     1 NCelD=      1
         NCelK=      1 NCelE2=     1 NClLst=     1 CellRange=     0.0.
 One-electron integrals computed using PRISM.
 NBasis=   419 RedAO= T  NBF=   419
 NBsUse=   419 1.00D-06 NBFU=   419
 Precomputing XC quadrature grid using
 IXCGrd= 2 IRadAn=           5 IRanWt=          -1 IRanGd=           0.
 NRdTot=    2327 NPtTot=      626726 NUsed=      643124 NTot=      643156
 NSgBfM=   442   442   442   442.
 Leave Link  302 at Sat Aug  2 14:48:11 2008, MaxMem=  536870912 cpu:      15.0
 (Enter /usr/local/Chem-Apps/g03_d01/g03/l303.exe)
 DipDrv:  MaxL=1.
 Leave Link  303 at Sat Aug  2 14:48:12 2008, MaxMem=  536870912 cpu:       2.1
 (Enter /usr/local/Chem-Apps/g03_d01/g03/l401.exe)
 Harris functional with IExCor=  402 diagonalized for initial guess.
 ExpMin= 2.97D-02 ExpMax= 1.11D+05 ExpMxC= 3.24D+03 IAcc=3 IRadAn=         5 AccDes= 0.00D+00
 HarFok:  IExCor= 402 AccDes= 0.00D+00 IRadAn=         5 IDoV=1
 ScaDFX=  1.000000  1.000000  1.000000  1.000000
 Harris En= -1332.52368777631    
 Initial guess orbital symmetries:
       Occupied  (A) (A) (A) (A) (A) (A) (A) (A) (A) (A) (A) (A)
                 (A) (A) (A) (A) (A) (A) (A) (A) (A) (A) (A) (A)
                 (A) (A) (A) (A) (A) (A) (A) (A) (A) (A) (A) (A)
                 (A) (A) (A) (A) (A) (A) (A) (A) (A) (A) (A) (A)
                 (A) (A) (A) (A) (A) (A) (A) (A) (A) (A) (A)
       Virtual   (A) (A) (A) (A) (A) (A) (A) (A) (A) (A) (A) (A)
                 (A) (A) (A) (A) (A) (A) (A) (A) (A) (A) (A) (A)
                 (A) (A) (A) (A) (A) (A) (A) (A) (A) (A) (A) (A)
                 (A) (A) (A) (A) (A) (A) (A) (A) (A) (A) (A) (A)
                 (A) (A) (A) (A) (A) (A) (A) (A) (A) (A) (A) (A)
                 (A) (A) (A) (A) (A) (A) (A) (A) (A) (A) (A) (A)
                 (A) (A) (A) (A) (A) (A) (A) (A) (A) (A) (A) (A)
                 (A) (A) (A) (A) (A) (A) (A) (A) (A) (A) (A) (A)
                 (A) (A) (A) (A) (A) (A) (A) (A) (A) (A) (A) (A)
                 (A) (A) (A) (A) (A) (A) (A) (A) (A) (A) (A) (A)
                 (A) (A) (A) (A) (A) (A) (A) (A) (A) (A) (A) (A)
                 (A) (A) (A) (A) (A) (A) (A) (A) (A) (A) (A) (A)
                 (A) (A) (A) (A) (A) (A) (A) (A) (A) (A) (A) (A)
                 (A) (A) (A) (A) (A) (A) (A) (A) (A) (A) (A) (A)
                 (A) (A) (A) (A) (A) (A) (A) (A) (A) (A) (A) (A)
                 (A) (A) (A) (A) (A) (A) (A) (A) (A) (A) (A) (A)
                 (A) (A) (A) (A) (A) (A) (A) (A) (A) (A) (A) (A)
                 (A) (A) (A) (A) (A) (A) (A) (A) (A) (A) (A) (A)
                 (A) (A) (A) (A) (A) (A) (A) (A) (A) (A) (A) (A)
                 (A) (A) (A) (A) (A) (A) (A) (A) (A) (A) (A) (A)
                 (A) (A) (A) (A) (A) (A) (A) (A) (A) (A) (A) (A)
                 (A) (A) (A) (A) (A) (A) (A) (A) (A) (A) (A) (A)
                 (A) (A) (A) (A) (A) (A) (A) (A) (A) (A) (A) (A)
                 (A) (A) (A) (A) (A) (A) (A) (A) (A) (A) (A) (A)
                 (A) (A) (A) (A) (A) (A) (A) (A) (A) (A) (A) (A)
                 (A) (A) (A) (A) (A) (A) (A) (A) (A) (A) (A) (A)
                 (A) (A) (A) (A) (A) (A) (A) (A) (A) (A) (A) (A)
                 (A) (A) (A) (A) (A) (A) (A) (A) (A) (A) (A) (A)
                 (A) (A) (A) (A) (A) (A) (A) (A) (A) (A) (A) (A)
                 (A) (A) (A) (A) (A) (A) (A) (A) (A) (A) (A) (A)
 The electronic state of the initial guess is 1-A.
 Leave Link  401 at Sat Aug  2 14:48:17 2008, MaxMem=  536870912 cpu:      65.0
 (Enter /usr/local/Chem-Apps/g03_d01/g03/l502.exe)
 Closed shell SCF:
 Requested convergence on RMS density matrix=1.00D-08 within 128 cycles.
 Requested convergence on MAX density matrix=1.00D-06.
 Requested convergence on             energy=1.00D-06.
 No special actions if energy rises.
 Using DIIS extrapolation, IDIIS=  1040.
 Integral symmetry usage will be decided dynamically.
       643123 words used for storage of precomputed grid.
 IEnd=   1357287 IEndB=   1357287 NGot= 536870912 MDV= 535726958
 LenX= 535726958
 Fock matrices will be formed incrementally for  20 cycles.

 Cycle   1  Pass 1  IDiag  1:
 Petite list used in FoFDir.
 MinBra= 0 MaxBra= 2 Meth= 1.
 IRaf=       0 NMat=   1 IRICut=       1 DoRegI=T DoRafI=F ISym2E= 1 JSym2E=1.
 E= -1331.53700567433    
 DIIS: error= 3.27D-02 at cycle   1 NSaved=   1.
 NSaved= 1 IEnMin= 1 EnMin= -1331.53700567433     IErMin= 1 ErrMin= 3.27D-02
 ErrMax= 3.27D-02 EMaxC= 1.00D-01 BMatC= 7.93D-01 BMatP= 7.93D-01
 IDIUse=3 WtCom= 6.73D-01 WtEn= 3.27D-01
 Coeff-Com:  0.100D+01
 Coeff-En:   0.100D+01
 Coeff:      0.100D+01
 Gap=     0.246 Goal=   None    Shift=    0.000
 GapD=    0.246 DampG=1.000 DampE=0.500 DampFc=0.5000 IDamp=-1.
 Damping current iteration by 5.00D-01
 RMSDP=9.89D-03 MaxDP=5.81D-01              OVMax= 3.08D-01

 Cycle   2  Pass 1  IDiag  1:
 RMSU=  4.18D-03    CP:  8.89D-01
 E= -1331.66342212329     Delta-E=       -0.126416448959 Rises=F Damp=T
 DIIS: error= 1.30D-02 at cycle   2 NSaved=   2.
 NSaved= 2 IEnMin= 2 EnMin= -1331.66342212329     IErMin= 2 ErrMin= 1.30D-02
 ErrMax= 1.30D-02 EMaxC= 1.00D-01 BMatC= 1.13D-01 BMatP= 7.93D-01
 IDIUse=3 WtCom= 8.70D-01 WtEn= 1.30D-01
 Coeff-Com:  0.247D+00 0.753D+00
 Coeff-En:   0.407D+00 0.593D+00
 Coeff:      0.268D+00 0.732D+00
 Gap=     0.203 Goal=   None    Shift=    0.000
 RMSDP=3.82D-03 MaxDP=3.82D-01 DE=-1.26D-01 OVMax= 2.11D-01

 Cycle   3  Pass 1  IDiag  1:
 RMSU=  3.11D-03    CP:  7.97D-01  9.13D-01
 E= -1332.13741471692     Delta-E=       -0.473992593626 Rises=F Damp=F
 DIIS: error= 5.07D-03 at cycle   3 NSaved=   3.
 NSaved= 3 IEnMin= 3 EnMin= -1332.13741471692     IErMin= 3 ErrMin= 5.07D-03
 ErrMax= 5.07D-03 EMaxC= 1.00D-01 BMatC= 5.36D-02 BMatP= 1.13D-01
 IDIUse=3 WtCom= 9.49D-01 WtEn= 5.07D-02
 Coeff-Com:  0.116D+00 0.452D+00 0.431D+00
 Coeff-En:   0.000D+00 0.000D+00 0.100D+01
 Coeff:      0.110D+00 0.430D+00 0.460D+00
 Gap=     0.160 Goal=   None    Shift=    0.000
 RMSDP=1.05D-03 MaxDP=6.12D-02 DE=-4.74D-01 OVMax= 6.35D-02

 Cycle   4  Pass 1  IDiag  1:
 RMSU=  7.91D-04    CP:  8.12D-01  8.82D-01  8.14D-01
 E= -1332.18705584160     Delta-E=       -0.049641124686 Rises=F Damp=F
 DIIS: error= 1.56D-03 at cycle   4 NSaved=   4.
 NSaved= 4 IEnMin= 4 EnMin= -1332.18705584160     IErMin= 4 ErrMin= 1.56D-03
 ErrMax= 1.56D-03 EMaxC= 1.00D-01 BMatC= 4.09D-03 BMatP= 5.36D-02
 IDIUse=3 WtCom= 9.84D-01 WtEn= 1.56D-02
 Coeff-Com:  0.168D-01 0.131D+00 0.234D+00 0.619D+00
 Coeff-En:   0.000D+00 0.000D+00 0.000D+00 0.100D+01
 Coeff:      0.165D-01 0.129D+00 0.230D+00 0.625D+00
 Gap=     0.157 Goal=   None    Shift=    0.000
 RMSDP=2.39D-04 MaxDP=9.07D-03 DE=-4.96D-02 OVMax= 1.31D-02

 Cycle   5  Pass 1  IDiag  1:
 RMSU=  2.06D-04    CP:  8.14D-01  8.87D-01  8.10D-01  8.59D-01
 E= -1332.18979620017     Delta-E=       -0.002740358564 Rises=F Damp=F
 DIIS: error= 7.89D-04 at cycle   5 NSaved=   5.
 NSaved= 5 IEnMin= 5 EnMin= -1332.18979620017     IErMin= 5 ErrMin= 7.89D-04
 ErrMax= 7.89D-04 EMaxC= 1.00D-01 BMatC= 8.13D-04 BMatP= 4.09D-03
 IDIUse=3 WtCom= 9.92D-01 WtEn= 7.89D-03
 Coeff-Com: -0.589D-02 0.235D-01 0.784D-01 0.378D+00 0.526D+00
 Coeff-En:   0.000D+00 0.000D+00 0.000D+00 0.149D+00 0.851D+00
 Coeff:     -0.584D-02 0.233D-01 0.778D-01 0.376D+00 0.529D+00
 Gap=     0.155 Goal=   None    Shift=    0.000
 RMSDP=1.11D-04 MaxDP=3.71D-03 DE=-2.74D-03 OVMax= 5.05D-03

 Cycle   6  Pass 1  IDiag  1:
 RMSU=  8.95D-05    CP:  8.13D-01  8.99D-01  8.16D-01  8.56D-01  8.70D-01
 E= -1332.19049588113     Delta-E=       -0.000699680966 Rises=F Damp=F
 DIIS: error= 9.35D-05 at cycle   6 NSaved=   6.
 NSaved= 6 IEnMin= 6 EnMin= -1332.19049588113     IErMin= 6 ErrMin= 9.35D-05
 ErrMax= 9.35D-05 EMaxC= 1.00D-01 BMatC= 1.90D-05 BMatP= 8.13D-04
 IDIUse=1 WtCom= 1.00D+00 WtEn= 0.00D+00
 Coeff-Com: -0.294D-02 0.286D-02 0.184D-01 0.110D+00 0.215D+00 0.657D+00
 Coeff:     -0.294D-02 0.286D-02 0.184D-01 0.110D+00 0.215D+00 0.657D+00
 Gap=     0.154 Goal=   None    Shift=    0.000
 RMSDP=2.20D-05 MaxDP=1.00D-03 DE=-7.00D-04 OVMax= 8.81D-04

 Cycle   7  Pass 1  IDiag  1:
 RMSU=  2.06D-05    CP:  8.13D-01  8.98D-01  8.16D-01  8.62D-01  8.56D-01
                    CP:  9.51D-01
 E= -1332.19050759659     Delta-E=       -0.000011715458 Rises=F Damp=F
 DIIS: error= 4.15D-05 at cycle   7 NSaved=   7.
 NSaved= 7 IEnMin= 7 EnMin= -1332.19050759659     IErMin= 7 ErrMin= 4.15D-05
 ErrMax= 4.15D-05 EMaxC= 1.00D-01 BMatC= 5.25D-06 BMatP= 1.90D-05
 IDIUse=1 WtCom= 1.00D+00 WtEn= 0.00D+00
 Coeff-Com: -0.126D-02-0.395D-03 0.456D-02 0.339D-01 0.855D-01 0.401D+00
 Coeff-Com:  0.476D+00
 Coeff:     -0.126D-02-0.395D-03 0.456D-02 0.339D-01 0.855D-01 0.401D+00
 Coeff:      0.476D+00
 Gap=     0.154 Goal=   None    Shift=    0.000
 RMSDP=7.72D-06 MaxDP=3.30D-04 DE=-1.17D-05 OVMax= 4.32D-04

 Cycle   8  Pass 1  IDiag  1:
 RMSU=  6.18D-06    CP:  8.13D-01  8.98D-01  8.16D-01  8.63D-01  8.66D-01
                    CP:  9.38D-01  8.17D-01
 E= -1332.19051206105     Delta-E=       -0.000004464457 Rises=F Damp=F
 DIIS: error= 1.58D-05 at cycle   8 NSaved=   8.
 NSaved= 8 IEnMin= 8 EnMin= -1332.19051206105     IErMin= 8 ErrMin= 1.58D-05
 ErrMax= 1.58D-05 EMaxC= 1.00D-01 BMatC= 3.89D-07 BMatP= 5.25D-06
 IDIUse=1 WtCom= 1.00D+00 WtEn= 0.00D+00
 Coeff-Com: -0.403D-03-0.503D-03 0.949D-03 0.903D-02 0.292D-01 0.171D+00
 Coeff-Com:  0.269D+00 0.522D+00
 Coeff:     -0.403D-03-0.503D-03 0.949D-03 0.903D-02 0.292D-01 0.171D+00
 Coeff:      0.269D+00 0.522D+00
 Gap=     0.154 Goal=   None    Shift=    0.000
 RMSDP=2.40D-06 MaxDP=1.16D-04 DE=-4.46D-06 OVMax= 1.51D-04

 Cycle   9  Pass 1  IDiag  1:
 RMSU=  2.15D-06    CP:  8.13D-01  8.98D-01  8.17D-01  8.62D-01  8.67D-01
                    CP:  9.37D-01  8.07D-01  8.68D-01
 E= -1332.19051230386     Delta-E=       -0.000000242811 Rises=F Damp=F
 DIIS: error= 6.77D-06 at cycle   9 NSaved=   9.
 NSaved= 9 IEnMin= 9 EnMin= -1332.19051230386     IErMin= 9 ErrMin= 6.77D-06
 ErrMax= 6.77D-06 EMaxC= 1.00D-01 BMatC= 8.71D-08 BMatP= 3.89D-07
 IDIUse=1 WtCom= 1.00D+00 WtEn= 0.00D+00
 Coeff-Com: -0.423D-04-0.245D-03-0.637D-04 0.658D-03 0.545D-02 0.456D-01
 Coeff-Com:  0.941D-01 0.347D+00 0.508D+00
 Coeff:     -0.423D-04-0.245D-03-0.637D-04 0.658D-03 0.545D-02 0.456D-01
 Coeff:      0.941D-01 0.347D+00 0.508D+00
 Gap=     0.154 Goal=   None    Shift=    0.000
 RMSDP=9.59D-07 MaxDP=4.81D-05 DE=-2.43D-07 OVMax= 5.85D-05

 Cycle  10  Pass 1  IDiag  1:
 RMSU=  7.47D-07    CP:  8.13D-01  8.98D-01  8.17D-01  8.62D-01  8.67D-01
                    CP:  9.40D-01  8.03D-01  8.81D-01  7.92D-01
 E= -1332.19051237410     Delta-E=       -0.000000070241 Rises=F Damp=F
 DIIS: error= 1.13D-06 at cycle  10 NSaved=  10.
 NSaved=10 IEnMin=10 EnMin= -1332.19051237410     IErMin=10 ErrMin= 1.13D-06
 ErrMax= 1.13D-06 EMaxC= 1.00D-01 BMatC= 3.03D-09 BMatP= 8.71D-08
 IDIUse=1 WtCom= 1.00D+00 WtEn= 0.00D+00
 Coeff-Com:  0.104D-04-0.727D-04-0.108D-03-0.340D-03 0.313D-03 0.741D-02
 Coeff-Com:  0.207D-01 0.115D+00 0.239D+00 0.618D+00
 Coeff:      0.104D-04-0.727D-04-0.108D-03-0.340D-03 0.313D-03 0.741D-02
 Coeff:      0.207D-01 0.115D+00 0.239D+00 0.618D+00
 Gap=     0.154 Goal=   None    Shift=    0.000
 RMSDP=2.91D-07 MaxDP=9.83D-06 DE=-7.02D-08 OVMax= 1.30D-05

 Cycle  11  Pass 1  IDiag  1:
 RMSU=  2.39D-07    CP:  8.13D-01  8.98D-01  8.17D-01  8.62D-01  8.67D-01
                    CP:  9.40D-01  8.05D-01  8.79D-01  7.80D-01  8.41D-01
 E= -1332.19051237682     Delta-E=       -0.000000002722 Rises=F Damp=F
 DIIS: error= 5.17D-07 at cycle  11 NSaved=  11.
 NSaved=11 IEnMin=11 EnMin= -1332.19051237682     IErMin=11 ErrMin= 5.17D-07
 ErrMax= 5.17D-07 EMaxC= 1.00D-01 BMatC= 3.48D-10 BMatP= 3.03D-09
 IDIUse=1 WtCom= 1.00D+00 WtEn= 0.00D+00
 Coeff-Com:  0.888D-05-0.159D-04-0.627D-04-0.267D-03-0.338D-03-0.122D-03
 Coeff-Com:  0.232D-02 0.293D-01 0.803D-01 0.318D+00 0.571D+00
 Coeff:      0.888D-05-0.159D-04-0.627D-04-0.267D-03-0.338D-03-0.122D-03
 Coeff:      0.232D-02 0.293D-01 0.803D-01 0.318D+00 0.571D+00
 Gap=     0.154 Goal=   None    Shift=    0.000
 RMSDP=9.24D-08 MaxDP=3.69D-06 DE=-2.72D-09 OVMax= 6.66D-06

 Cycle  12  Pass 1  IDiag  1:
 RMSU=  8.11D-08    CP:  8.13D-01  8.98D-01  8.17D-01  8.62D-01  8.67D-01
                    CP:  9.40D-01  8.05D-01  8.81D-01  7.87D-01  8.46D-01
                    CP:  8.87D-01
 E= -1332.19051237706     Delta-E=       -0.000000000236 Rises=F Damp=F
 DIIS: error= 1.33D-07 at cycle  12 NSaved=  12.
 NSaved=12 IEnMin=12 EnMin= -1332.19051237706     IErMin=12 ErrMin= 1.33D-07
 ErrMax= 1.33D-07 EMaxC= 1.00D-01 BMatC= 4.54D-11 BMatP= 3.48D-10
 IDIUse=1 WtCom= 1.00D+00 WtEn= 0.00D+00
 Coeff-Com:  0.160D-05 0.520D-06-0.179D-04-0.728D-04-0.155D-03-0.705D-03
 Coeff-Com: -0.102D-02 0.226D-02 0.145D-01 0.933D-01 0.310D+00 0.582D+00
 Coeff:      0.160D-05 0.520D-06-0.179D-04-0.728D-04-0.155D-03-0.705D-03
 Coeff:     -0.102D-02 0.226D-02 0.145D-01 0.933D-01 0.310D+00 0.582D+00
 Gap=     0.154 Goal=   None    Shift=    0.000
 RMSDP=3.55D-08 MaxDP=1.84D-06 DE=-2.36D-10 OVMax= 2.60D-06

 Cycle  13  Pass 1  IDiag  1:
 RMSU=  2.77D-08    CP:  8.13D-01  8.98D-01  8.17D-01  8.62D-01  8.67D-01
                    CP:  9.40D-01  8.05D-01  8.83D-01  7.92D-01  8.51D-01
                    CP:  8.78D-01  8.02D-01
 E= -1332.19051237711     Delta-E=       -0.000000000048 Rises=F Damp=F
 DIIS: error= 4.74D-08 at cycle  13 NSaved=  13.
 NSaved=13 IEnMin=13 EnMin= -1332.19051237711     IErMin=13 ErrMin= 4.74D-08
 ErrMax= 4.74D-08 EMaxC= 1.00D-01 BMatC= 4.28D-12 BMatP= 4.54D-11
 IDIUse=1 WtCom= 1.00D+00 WtEn= 0.00D+00
 Coeff-Com: -0.144D-06 0.210D-05-0.410D-05-0.169D-04-0.587D-04-0.402D-03
 Coeff-Com: -0.811D-03-0.199D-02-0.119D-02 0.146D-01 0.999D-01 0.301D+00
 Coeff-Com:  0.589D+00
 Coeff:     -0.144D-06 0.210D-05-0.410D-05-0.169D-04-0.587D-04-0.402D-03
 Coeff:     -0.811D-03-0.199D-02-0.119D-02 0.146D-01 0.999D-01 0.301D+00
 Coeff:      0.589D+00
 Gap=     0.154 Goal=   None    Shift=    0.000
 RMSDP=1.07D-08 MaxDP=9.28D-07 DE=-4.82D-11 OVMax= 8.92D-07

 Cycle  14  Pass 1  IDiag  1:
 RMSU=  7.50D-09    CP:  8.13D-01  8.98D-01  8.17D-01  8.62D-01  8.67D-01
                    CP:  9.40D-01  8.05D-01  8.83D-01  7.92D-01  8.55D-01
                    CP:  8.80D-01  8.14D-01  7.84D-01
 E= -1332.19051237722     Delta-E=       -0.000000000110 Rises=F Damp=F
 DIIS: error= 1.72D-08 at cycle  14 NSaved=  14.
 NSaved=14 IEnMin=14 EnMin= -1332.19051237722     IErMin=14 ErrMin= 1.72D-08
 ErrMax= 1.72D-08 EMaxC= 1.00D-01 BMatC= 3.81D-13 BMatP= 4.28D-12
 IDIUse=1 WtCom= 1.00D+00 WtEn= 0.00D+00
 Coeff-Com: -0.168D-06 0.113D-05-0.136D-05-0.659D-05-0.249D-04-0.177D-03
 Coeff-Com: -0.357D-03-0.113D-02-0.145D-02 0.206D-02 0.338D-01 0.124D+00
 Coeff-Com:  0.311D+00 0.532D+00
 Coeff:     -0.168D-06 0.113D-05-0.136D-05-0.659D-05-0.249D-04-0.177D-03
 Coeff:     -0.357D-03-0.113D-02-0.145D-02 0.206D-02 0.338D-01 0.124D+00
 Coeff:      0.311D+00 0.532D+00
 Gap=     0.154 Goal=   None    Shift=    0.000
 RMSDP=3.36D-09 MaxDP=2.97D-07 DE=-1.10D-10 OVMax= 3.08D-07

 SCF Done:  E(RB+HF-LYP) =  -1332.19051238     A.U. after   14 cycles
             Convg  =    0.3365D-08             -V/T =  2.0044
             S**2   =   0.0000
 KE= 1.326317745936D+03 PE=-5.228640712301D+03 EE= 1.537975290543D+03
 Leave Link  502 at Sat Aug  2 14:52:27 2008, MaxMem=  536870912 cpu:    3859.1
 (Enter /usr/local/Chem-Apps/g03_d01/g03/l601.exe)
 Copying SCF densities to generalized density rwf, ISCF=0 IROHF=0.

 **********************************************************************

            Population analysis using the SCF density.

 **********************************************************************

 Orbital symmetries:
       Occupied  (A) (A) (A) (A) (A) (A) (A) (A) (A) (A) (A) (A)
                 (A) (A) (A) (A) (A) (A) (A) (A) (A) (A) (A) (A)
                 (A) (A) (A) (A) (A) (A) (A) (A) (A) (A) (A) (A)
                 (A) (A) (A) (A) (A) (A) (A) (A) (A) (A) (A) (A)
                 (A) (A) (A) (A) (A) (A) (A) (A) (A) (A) (A)
       Virtual   (A) (A) (A) (A) (A) (A) (A) (A) (A) (A) (A) (A)
                 (A) (A) (A) (A) (A) (A) (A) (A) (A) (A) (A) (A)
                 (A) (A) (A) (A) (A) (A) (A) (A) (A) (A) (A) (A)
                 (A) (A) (A) (A) (A) (A) (A) (A) (A) (A) (A) (A)
                 (A) (A) (A) (A) (A) (A) (A) (A) (A) (A) (A) (A)
                 (A) (A) (A) (A) (A) (A) (A) (A) (A) (A) (A) (A)
                 (A) (A) (A) (A) (A) (A) (A) (A) (A) (A) (A) (A)
                 (A) (A) (A) (A) (A) (A) (A) (A) (A) (A) (A) (A)
                 (A) (A) (A) (A) (A) (A) (A) (A) (A) (A) (A) (A)
                 (A) (A) (A) (A) (A) (A) (A) (A) (A) (A) (A) (A)
                 (A) (A) (A) (A) (A) (A) (A) (A) (A) (A) (A) (A)
                 (A) (A) (A) (A) (A) (A) (A) (A) (A) (A) (A) (A)
                 (A) (A) (A) (A) (A) (A) (A) (A) (A) (A) (A) (A)
                 (A) (A) (A) (A) (A) (A) (A) (A) (A) (A) (A) (A)
                 (A) (A) (A) (A) (A) (A) (A) (A) (A) (A) (A) (A)
                 (A) (A) (A) (A) (A) (A) (A) (A) (A) (A) (A) (A)
                 (A) (A) (A) (A) (A) (A) (A) (A) (A) (A) (A) (A)
                 (A) (A) (A) (A) (A) (A) (A) (A) (A) (A) (A) (A)
                 (A) (A) (A) (A) (A) (A) (A) (A) (A) (A) (A) (A)
                 (A) (A) (A) (A) (A) (A) (A) (A) (A) (A) (A) (A)
                 (A) (A) (A) (A) (A) (A) (A) (A) (A) (A) (A) (A)
                 (A) (A) (A) (A) (A) (A) (A) (A) (A) (A) (A) (A)
                 (A) (A) (A) (A) (A) (A) (A) (A) (A) (A) (A) (A)
                 (A) (A) (A) (A) (A) (A) (A) (A) (A) (A) (A) (A)
                 (A) (A) (A) (A) (A) (A) (A) (A) (A) (A) (A) (A)
                 (A) (A) (A) (A) (A) (A) (A) (A) (A) (A) (A) (A)
                 (A) (A) (A) (A) (A) (A) (A) (A) (A) (A) (A) (A)
                 (A) (A) (A) (A) (A) (A) (A) (A) (A) (A) (A) (A)
                 (A) (A) (A) (A) (A) (A) (A) (A) (A) (A) (A) (A)
                 (A) (A) (A) (A) (A) (A) (A) (A) (A) (A) (A) (A)
 The electronic state is 1-A.
 Alpha  occ. eigenvalues --  -88.69885 -77.08034 -19.02240 -19.01952 -18.99621
 Alpha  occ. eigenvalues --  -18.97851 -18.97791 -14.27470 -10.12738 -10.12527
 Alpha  occ. eigenvalues --  -10.11223 -10.11069  -7.76007  -6.52799  -5.72478
 Alpha  occ. eigenvalues --   -5.71766  -5.71690  -4.69295  -4.68943  -4.68918
 Alpha  occ. eigenvalues --   -0.88768  -0.88270  -0.86338  -0.85534  -0.82535
 Alpha  occ. eigenvalues --   -0.80124  -0.72349  -0.64434  -0.56218  -0.54970
 Alpha  occ. eigenvalues --   -0.49561  -0.44354  -0.40917  -0.39424  -0.39175
 Alpha  occ. eigenvalues --   -0.38632  -0.37863  -0.36893  -0.35729  -0.32889
 Alpha  occ. eigenvalues --   -0.32384  -0.28828  -0.28386  -0.28184  -0.27272
 Alpha  occ. eigenvalues --   -0.26394  -0.26226  -0.25560  -0.23802  -0.19842
 Alpha  occ. eigenvalues --   -0.19292  -0.18999  -0.17415  -0.16635  -0.16266
 Alpha  occ. eigenvalues --   -0.15270  -0.15167  -0.10439  -0.09382
 Alpha virt. eigenvalues --    0.06031   0.06294   0.07940   0.08130   0.09560
 Alpha virt. eigenvalues --    0.10328   0.10928   0.11821   0.12125   0.12657
 Alpha virt. eigenvalues --    0.13174   0.13516   0.14061   0.14872   0.14992
 Alpha virt. eigenvalues --    0.15356   0.15901   0.16189   0.16265   0.16408
 Alpha virt. eigenvalues --    0.16909   0.17300   0.17340   0.18073   0.18080
 Alpha virt. eigenvalues --    0.19193   0.19665   0.19998   0.20222   0.20632
 Alpha virt. eigenvalues --    0.21249   0.21406   0.21851   0.22014   0.22702
 Alpha virt. eigenvalues --    0.23204   0.23986   0.24320   0.24612   0.25300
 Alpha virt. eigenvalues --    0.25876   0.26068   0.26986   0.27428   0.27527
 Alpha virt. eigenvalues --    0.27788   0.28513   0.28661   0.29137   0.29246
 Alpha virt. eigenvalues --    0.29635   0.30286   0.30507   0.31087   0.31378
 Alpha virt. eigenvalues --    0.31412   0.32208   0.32276   0.32462   0.32977
 Alpha virt. eigenvalues --    0.33542   0.33701   0.33914   0.34019   0.34821
 Alpha virt. eigenvalues --    0.35146   0.35690   0.35926   0.36735   0.36869
 Alpha virt. eigenvalues --    0.37260   0.37988   0.38614   0.38781   0.39138
 Alpha virt. eigenvalues --    0.39703   0.40527   0.40892   0.41043   0.41508
 Alpha virt. eigenvalues --    0.42331   0.42724   0.43245   0.43484   0.44557
 Alpha virt. eigenvalues --    0.44977   0.45303   0.45775   0.46292   0.46786
 Alpha virt. eigenvalues --    0.46998   0.47711   0.48628   0.48873   0.49096
 Alpha virt. eigenvalues --    0.49992   0.50614   0.51290   0.51752   0.52920
 Alpha virt. eigenvalues --    0.53635   0.54223   0.54856   0.55582   0.55926
 Alpha virt. eigenvalues --    0.55953   0.56467   0.57248   0.57857   0.58476
 Alpha virt. eigenvalues --    0.58934   0.59616   0.60095   0.60273   0.60708
 Alpha virt. eigenvalues --    0.61155   0.61287   0.62356   0.63160   0.63543
 Alpha virt. eigenvalues --    0.64013   0.64423   0.64752   0.65292   0.66009
 Alpha virt. eigenvalues --    0.66955   0.67016   0.67456   0.67955   0.68849
 Alpha virt. eigenvalues --    0.69624   0.70033   0.70732   0.70916   0.71991
 Alpha virt. eigenvalues --    0.72551   0.73352   0.73617   0.73762   0.74836
 Alpha virt. eigenvalues --    0.75661   0.76125   0.76484   0.77737   0.78122
 Alpha virt. eigenvalues --    0.78519   0.79040   0.79628   0.80486   0.80948
 Alpha virt. eigenvalues --    0.82615   0.82655   0.83101   0.83619   0.84425
 Alpha virt. eigenvalues --    0.85119   0.86225   0.87230   0.87359   0.88320
 Alpha virt. eigenvalues --    0.89377   0.90713   0.91959   0.92783   0.93115
 Alpha virt. eigenvalues --    0.94358   0.94552   0.96017   0.96313   0.97949
 Alpha virt. eigenvalues --    0.98106   0.99448   1.00199   1.01182   1.02641
 Alpha virt. eigenvalues --    1.03223   1.04839   1.06043   1.06156   1.06429
 Alpha virt. eigenvalues --    1.08981   1.09174   1.09604   1.10327   1.11207
 Alpha virt. eigenvalues --    1.11690   1.12574   1.13092   1.13760   1.14934
 Alpha virt. eigenvalues --    1.15333   1.16175   1.17524   1.17830   1.19204
 Alpha virt. eigenvalues --    1.20356   1.20916   1.21274   1.22324   1.22563
 Alpha virt. eigenvalues --    1.23537   1.24125   1.24416   1.25730   1.26376
 Alpha virt. eigenvalues --    1.27769   1.28645   1.29465   1.30094   1.30904
 Alpha virt. eigenvalues --    1.32509   1.33572   1.35507   1.36351   1.36919
 Alpha virt. eigenvalues --    1.38034   1.39619   1.40560   1.41638   1.42170
 Alpha virt. eigenvalues --    1.43860   1.44382   1.44622   1.45260   1.46712
 Alpha virt. eigenvalues --    1.47918   1.48976   1.49851   1.51314   1.51776
 Alpha virt. eigenvalues --    1.52562   1.53597   1.54387   1.56182   1.57882
 Alpha virt. eigenvalues --    1.59286   1.60198   1.62624   1.63869   1.64548
 Alpha virt. eigenvalues --    1.65929   1.67139   1.68220   1.69821   1.71549
 Alpha virt. eigenvalues --    1.71860   1.73455   1.75445   1.76068   1.77865
 Alpha virt. eigenvalues --    1.79105   1.80543   1.81511   1.83716   1.84454
 Alpha virt. eigenvalues --    1.85851   1.86297   1.88600   1.90602   1.91614
 Alpha virt. eigenvalues --    1.92978   1.93420   1.93952   1.95159   1.95916
 Alpha virt. eigenvalues --    1.97236   1.98169   1.99217   1.99756   2.01589
 Alpha virt. eigenvalues --    2.02507   2.03611   2.05103   2.05483   2.06470
 Alpha virt. eigenvalues --    2.07958   2.08856   2.11003   2.12537   2.12959
 Alpha virt. eigenvalues --    2.14588   2.16039   2.17260   2.17771   2.19395
 Alpha virt. eigenvalues --    2.24073   2.25181   2.27346   2.28685   2.30110
 Alpha virt. eigenvalues --    2.31143   2.35011   2.35749   2.37758   2.39565
 Alpha virt. eigenvalues --    2.40865   2.41532   2.43120   2.43975   2.46235
 Alpha virt. eigenvalues --    2.48910   2.49039   2.51620   2.53742   2.54526
 Alpha virt. eigenvalues --    2.56291   2.59848   2.61789   2.62922   2.64208
 Alpha virt. eigenvalues --    2.66116   2.66373   2.66943   2.70384   2.70892
 Alpha virt. eigenvalues --    2.72242   2.72874   2.75679   2.76850   2.78113
 Alpha virt. eigenvalues --    2.80401   2.85511   2.91211   2.97237   2.97813
 Alpha virt. eigenvalues --    3.00517   3.00723   3.07484   3.10588   3.12293
 Alpha virt. eigenvalues --    3.16148   3.19498   3.31487   3.40526   3.48970
 Alpha virt. eigenvalues --    3.50377   3.51035   3.51570   3.51939   3.52459
 Alpha virt. eigenvalues --    3.55393   3.55621   3.56257   3.57512   3.58268
 Alpha virt. eigenvalues --    3.59881   3.62337   3.63565   3.64727   3.67838
 Alpha virt. eigenvalues --    3.71601   3.73498   3.76619   3.83488   3.91879
 Alpha virt. eigenvalues --    3.92539   3.95709   4.10285   4.13303   4.18271
          Condensed to atoms (all electrons):
              1          2          3          4          5          6
     1  C    6.238245   0.120695  -0.418538  -0.311006  -0.104945  -0.049550
     2  H    0.120695   3.250241  -0.775743  -0.173832   0.024923  -0.050174
     3  H   -0.418538  -0.775743   3.352078  -0.279695  -0.061142   0.002966
     4  N   -0.311006  -0.173832  -0.279695   8.319237   0.285165  -0.119375
     5  H   -0.104945   0.024923  -0.061142   0.285165   0.995158  -0.024853
     6  P   -0.049550  -0.050174   0.002966  -0.119375  -0.024853  13.564643
     7  O    0.050332   0.006529   0.012631  -0.163401   0.020579  -0.060980
     8  O    0.055583   0.016615  -0.010018  -0.125775   0.004261  -0.048712
     9  S    0.060943   0.005702   0.005171  -0.029436   0.011512   0.149116
    10  O    0.008827   0.000174  -0.001454  -0.023466   0.010757  -0.011007
    11  H    0.000950  -0.000667   0.004058  -0.014478   0.014470   0.009748
    12  H   -0.001213   0.002665  -0.009833   0.003466   0.009344   0.017373
    13  O    0.010994   0.002043   0.003640  -0.016509   0.011113   0.001249
    14  H    0.024332   0.002200   0.000667  -0.062433   0.000853  -0.011581
    15  H   -0.004537  -0.006262   0.001602   0.017338  -0.004250   0.000524
    16  O    0.005213   0.015184  -0.011996  -0.021284   0.002204   0.020060
    17  H    0.006138   0.012334  -0.012026  -0.004977  -0.002289  -0.003612
    18  H    0.009595  -0.013643   0.000925   0.002559  -0.000509   0.008815
    19  H   -0.200471  -0.056109   0.015427   0.242240  -0.224656  -0.066608
    20  C   -1.331274  -0.642200  -0.074946   0.084281  -0.006531   0.014994
    21  H    0.182010   0.238052  -0.271238  -0.153608  -0.039960  -0.001648
    22  H    0.504160  -0.338576   0.337222  -0.159811  -0.014281   0.013885
    23  C    0.006050  -0.102371  -0.108224  -0.108981   0.021243  -0.003762
    24  H    0.198759  -0.062804  -0.083704   0.067394   0.007459   0.006078
    25  C   -0.179488   0.029240   0.019153   0.008506  -0.009917  -0.002414
    26  H    0.210143   0.048336  -0.022801   0.011986   0.006641  -0.000555
    27  H   -0.008713  -0.009420   0.019905  -0.004159  -0.002522   0.000073
              7          8          9         10         11         12
     1  C    0.050332   0.055583   0.060943   0.008827   0.000950  -0.001213
     2  H    0.006529   0.016615   0.005702   0.000174  -0.000667   0.002665
     3  H    0.012631  -0.010018   0.005171  -0.001454   0.004058  -0.009833
     4  N   -0.163401  -0.125775  -0.029436  -0.023466  -0.014478   0.003466
     5  H    0.020579   0.004261   0.011512   0.010757   0.014470   0.009344
     6  P   -0.060980  -0.048712   0.149116  -0.011007   0.009748   0.017373
     7  O    9.209393  -0.097250  -0.028595  -0.021395   0.074293  -0.009633
     8  O   -0.097250   9.117867  -0.002314  -0.024617  -0.003740   0.069898
     9  S   -0.028595  -0.002314  16.710901   0.000114  -0.001455  -0.001878
    10  O   -0.021395  -0.024617   0.000114   7.943598   0.244400   0.235802
    11  H    0.074293  -0.003740  -0.001455   0.244400   0.577909  -0.059027
    12  H   -0.009633   0.069898  -0.001878   0.235802  -0.059027   0.576484
    13  O   -0.034170  -0.007218  -0.028197  -0.001222   0.000502  -0.000038
    14  H    0.129020   0.000257   0.002618  -0.000061  -0.003825   0.000204
    15  H   -0.011031   0.002715   0.015847   0.000131   0.000391   0.000088
    16  O   -0.000750  -0.037863  -0.019833  -0.000651   0.000235   0.000736
    17  H    0.001346   0.084187   0.002158  -0.000133   0.000357  -0.001790
    18  H    0.000426  -0.016812   0.000175   0.000147   0.000056  -0.000344
    19  H   -0.026991   0.022221  -0.020847   0.011152  -0.005361   0.000300
    20  C   -0.028143  -0.022840  -0.047079   0.017400  -0.001695  -0.003383
    21  H   -0.003094   0.001319  -0.000158   0.007777  -0.001528   0.002191
    22  H    0.001031  -0.000277   0.001592  -0.004243   0.001255  -0.001508
    23  C   -0.000181  -0.007686  -0.002553   0.001404   0.000967  -0.000485
    24  H   -0.000406  -0.001536  -0.001075  -0.000411  -0.000282   0.000388
    25  C   -0.000009  -0.001034   0.004099   0.000564   0.000140   0.000168
    26  H   -0.000033  -0.000360   0.000811   0.000053  -0.000106   0.000025
    27  H    0.000008   0.000073   0.000220   0.000052   0.000045  -0.000028
             13         14         15         16         17         18
     1  C    0.010994   0.024332  -0.004537   0.005213   0.006138   0.009595
     2  H    0.002043   0.002200  -0.006262   0.015184   0.012334  -0.013643
     3  H    0.003640   0.000667   0.001602  -0.011996  -0.012026   0.000925
     4  N   -0.016509  -0.062433   0.017338  -0.021284  -0.004977   0.002559
     5  H    0.011113   0.000853  -0.004250   0.002204  -0.002289  -0.000509
     6  P    0.001249  -0.011581   0.000524   0.020060  -0.003612   0.008815
     7  O   -0.034170   0.129020  -0.011031  -0.000750   0.001346   0.000426
     8  O   -0.007218   0.000257   0.002715  -0.037863   0.084187  -0.016812
     9  S   -0.028197   0.002618   0.015847  -0.019833   0.002158   0.000175
    10  O   -0.001222  -0.000061   0.000131  -0.000651  -0.000133   0.000147
    11  H    0.000502  -0.003825   0.000391   0.000235   0.000357   0.000056
    12  H   -0.000038   0.000204   0.000088   0.000736  -0.001790  -0.000344
    13  O    7.934282   0.197048   0.296316  -0.000108  -0.000499  -0.000071
    14  H    0.197048   0.564950  -0.059714  -0.000015  -0.000424   0.000079
    15  H    0.296316  -0.059714   0.602664  -0.000039  -0.000078   0.000096
    16  O   -0.000108  -0.000015  -0.000039   7.859993   0.178909   0.320650
    17  H   -0.000499  -0.000424  -0.000078   0.178909   0.637541  -0.088941
    18  H   -0.000071   0.000079   0.000096   0.320650  -0.088941   0.672932
    19  H    0.010053   0.021215   0.012417  -0.002206  -0.000527  -0.000318
    20  C   -0.006997  -0.005438   0.005157  -0.013182   0.003455   0.008989
    21  H   -0.003730   0.001164  -0.000287  -0.001578   0.000990   0.000085
    22  H    0.005042  -0.000692   0.001866   0.001039  -0.001191   0.000675
    23  C    0.000964   0.002368  -0.000195   0.005276   0.001638   0.000374
    24  H    0.000079  -0.000279   0.000038   0.003429  -0.001463   0.000903
    25  C    0.000445  -0.000239   0.000070  -0.000409  -0.000586   0.001259
    26  H    0.000175   0.000207  -0.000146   0.000179   0.000029   0.000106
    27  H    0.000020   0.000021   0.000000  -0.000435  -0.000228   0.000081
             19         20         21         22         23         24
     1  C   -0.200471  -1.331274   0.182010   0.504160   0.006050   0.198759
     2  H   -0.056109  -0.642200   0.238052  -0.338576  -0.102371  -0.062804
     3  H    0.015427  -0.074946  -0.271238   0.337222  -0.108224  -0.083704
     4  N    0.242240   0.084281  -0.153608  -0.159811  -0.108981   0.067394
     5  H   -0.224656  -0.006531  -0.039960  -0.014281   0.021243   0.007459
     6  P   -0.066608   0.014994  -0.001648   0.013885  -0.003762   0.006078
     7  O   -0.026991  -0.028143  -0.003094   0.001031  -0.000181  -0.000406
     8  O    0.022221  -0.022840   0.001319  -0.000277  -0.007686  -0.001536
     9  S   -0.020847  -0.047079  -0.000158   0.001592  -0.002553  -0.001075
    10  O    0.011152   0.017400   0.007777  -0.004243   0.001404  -0.000411
    11  H   -0.005361  -0.001695  -0.001528   0.001255   0.000967  -0.000282
    12  H    0.000300  -0.003383   0.002191  -0.001508  -0.000485   0.000388
    13  O    0.010053  -0.006997  -0.003730   0.005042   0.000964   0.000079
    14  H    0.021215  -0.005438   0.001164  -0.000692   0.002368  -0.000279
    15  H    0.012417   0.005157  -0.000287   0.001866  -0.000195   0.000038
    16  O   -0.002206  -0.013182  -0.001578   0.001039   0.005276   0.003429
    17  H   -0.000527   0.003455   0.000990  -0.001191   0.001638  -0.001463
    18  H   -0.000318   0.008989   0.000085   0.000675   0.000374   0.000903
    19  H    1.121604   0.123177  -0.001991  -0.055472  -0.024214   0.011899
    20  C    0.123177   7.729682  -0.244291  -0.721091   0.512617  -0.350667
    21  H   -0.001991  -0.244291   2.461568  -0.540516  -0.156188  -0.122890
    22  H   -0.055472  -0.721091  -0.540516   3.135651  -0.272432   0.013290
    23  C   -0.024214   0.512617  -0.156188  -0.272432   5.938926  -0.805149
    24  H    0.011899  -0.350667  -0.122890   0.013290  -0.805149   3.035093
    25  C    0.010412  -0.194973   0.118741  -0.147771  -0.482517  -0.008087
    26  H   -0.007345  -0.355100   0.017868  -0.214363  -0.382169   0.171417
    27  H    0.001453   0.088071  -0.003023   0.069139   0.425106  -0.280990
             25         26         27
     1  C   -0.179488   0.210143  -0.008713
     2  H    0.029240   0.048336  -0.009420
     3  H    0.019153  -0.022801   0.019905
     4  N    0.008506   0.011986  -0.004159
     5  H   -0.009917   0.006641  -0.002522
     6  P   -0.002414  -0.000555   0.000073
     7  O   -0.000009  -0.000033   0.000008
     8  O   -0.001034  -0.000360   0.000073
     9  S    0.004099   0.000811   0.000220
    10  O    0.000564   0.000053   0.000052
    11  H    0.000140  -0.000106   0.000045
    12  H    0.000168   0.000025  -0.000028
    13  O    0.000445   0.000175   0.000020
    14  H   -0.000239   0.000207   0.000021
    15  H    0.000070  -0.000146   0.000000
    16  O   -0.000409   0.000179  -0.000435
    17  H   -0.000586   0.000029  -0.000228
    18  H    0.001259   0.000106   0.000081
    19  H    0.010412  -0.007345   0.001453
    20  C   -0.194973  -0.355100   0.088071
    21  H    0.118741   0.017868  -0.003023
    22  H   -0.147771  -0.214363   0.069139
    23  C   -0.482517  -0.382169   0.425106
    24  H   -0.008087   0.171417  -0.280990
    25  C    6.202311   0.281662  -0.393615
    26  H    0.281662   2.742328  -0.876212
    27  H   -0.393615  -0.876212   2.562149
 Mulliken atomic charges:
              1
     1  C    0.916766
     2  H   -0.543133
     3  H   -0.634087
     4  N   -0.269947
     5  H    0.070173
     6  P    1.645306
     7  O   -1.019526
     8  O   -0.966945
     9  S   -0.787560
    10  O   -0.393692
    11  H    0.162388
    12  H    0.170028
    13  O   -0.375206
    14  H    0.197497
    15  H    0.129278
    16  O   -0.302756
    17  H    0.189683
    18  H    0.091712
    19  H    0.089543
    20  C    1.462006
    21  H   -0.486036
    22  H   -0.613625
    23  C    1.540173
    24  H   -0.796483
    25  C    0.744290
    26  H   -0.632778
    27  H   -0.587072
 Sum of Mulliken charges=  -1.00000
 Atomic charges with hydrogens summed into heavy atoms:
              1
     1  C   -0.260454
     2  H    0.000000
     3  H    0.000000
     4  N   -0.110230
     5  H    0.000000
     6  P    1.645306
     7  O   -1.019526
     8  O   -0.966945
     9  S   -0.787560
    10  O   -0.061277
    11  H    0.000000
    12  H    0.000000
    13  O   -0.048431
    14  H    0.000000
    15  H    0.000000
    16  O   -0.021361
    17  H    0.000000
    18  H    0.000000
    19  H    0.000000
    20  C    0.362345
    21  H    0.000000
    22  H    0.000000
    23  C    0.743690
    24  H    0.000000
    25  C   -0.475559
    26  H    0.000000
    27  H    0.000000
 Sum of Mulliken charges=  -1.00000
 Electronic spatial extent (au):  <R**2>=  3769.0066
 Charge=    -1.0000 electrons
 Dipole moment (field-independent basis, Debye):
    X=    -8.0181    Y=    -2.7710    Z=     0.1697  Tot=     8.4851
 Quadrupole moment (field-independent basis, Debye-Ang):
   XX=  -113.8609   YY=  -127.0688   ZZ=  -114.0554
   XY=     3.1631   XZ=    -0.2317   YZ=    -0.8641
 Traceless Quadrupole moment (field-independent basis, Debye-Ang):
   XX=     4.4675   YY=    -8.7405   ZZ=     4.2730
   XY=     3.1631   XZ=    -0.2317   YZ=    -0.8641
 Octapole moment (field-independent basis, Debye-Ang**2):
  XXX=     6.7150  YYY=   -44.2270  ZZZ=   -14.7619  XYY=   -11.2155
  XXY=    11.1667  XXZ=     0.6676  XZZ=   -24.0891  YZZ=    13.3782
  YYZ=     7.3849  XYZ=    -1.5556
 Hexadecapole moment (field-independent basis, Debye-Ang**3):
 XXXX= -3090.9451 YYYY= -1670.2728 ZZZZ= -1201.4801 XXXY=   -61.7434
 XXXZ=    66.8166 YYYX=    25.1875 YYYZ=  -100.9227 ZZZX=   -28.4535
 ZZZY=    89.4034 XXYY=  -704.8737 XXZZ=  -706.9375 YYZZ=  -404.5549
 XXYZ=    29.3384 YYXZ=    29.6267 ZZXY=     9.4670
 N-N= 1.032157163444D+03 E-N=-5.228640718835D+03  KE= 1.326317745936D+03
 No NMR shielding tensors so no spin-rotation constants.
 Leave Link  601 at Sat Aug  2 14:52:28 2008, MaxMem=  536870912 cpu:      14.4
 (Enter /usr/local/Chem-Apps/g03_d01/g03/l701.exe)
 Compute integral first derivatives.
 ... and contract with generalized density number  0.
 Leave Link  701 at Sat Aug  2 14:52:29 2008, MaxMem=  536870912 cpu:       9.2
 (Enter /usr/local/Chem-Apps/g03_d01/g03/l702.exe)
 L702 exits ... SP integral derivatives will be done elsewhere.
 Leave Link  702 at Sat Aug  2 14:52:30 2008, MaxMem=  536870912 cpu:       0.0
 (Enter /usr/local/Chem-Apps/g03_d01/g03/l703.exe)
 Compute integral first derivatives, UseDBF=F.
 Integral derivatives from FoFDir, PRISM(SPDF).
 Symmetry not used in FoFDir.
 MinBra= 0 MaxBra= 2 Meth= 1.
 IRaf=       0 NMat=   1 IRICut=       1 DoRegI=T DoRafI=F ISym2E= 0 JSym2E=0.
 Leave Link  703 at Sat Aug  2 14:53:20 2008, MaxMem=  536870912 cpu:     751.7
 (Enter /usr/local/Chem-Apps/g03_d01/g03/l716.exe)
 Dipole        =-3.15457315D+00-1.09020243D+00 6.67693379D-02
 ***** Axes restored to original set *****
 -------------------------------------------------------------------
 Center     Atomic                   Forces (Hartrees/Bohr)
 Number     Number              X              Y              Z
 -------------------------------------------------------------------
    1          6           0.003862553   -0.004077899   -0.000841757
    2          1          -0.002276184   -0.000208799    0.001450538
    3          1           0.000366318   -0.000287084    0.000433399
    4          7          -0.001772496    0.002226051    0.000624966
    5          1           0.001128116    0.000000798   -0.000003836
    6         15          -0.000543956   -0.000303013   -0.000490830
    7          8           0.000350162   -0.000241955    0.000126064
    8          8          -0.000180642    0.000106322    0.000516392
    9         16           0.000468162   -0.000088726    0.000178380
   10          8          -0.000409181   -0.000118663    0.000267485
   11          1           0.000077780    0.000004021   -0.000209632
   12          1           0.000109840    0.000173705   -0.000167034
   13          8          -0.000009086   -0.000134707    0.000005308
   14          1           0.000022168    0.000077765    0.000042023
   15          1           0.000019577    0.000083294    0.000018180
   16          8          -0.000094136    0.000095906    0.000068878
   17          1           0.000083194   -0.000103006   -0.000055178
   18          1          -0.000016030   -0.000030501   -0.000026643
   19          1          -0.000382601    0.000261648   -0.000050094
   20          6          -0.003077173    0.043323092   -0.009168066
   21          1          -0.006084388   -0.008213845    0.019152802
   22          1           0.001076524   -0.015979680   -0.011234442
   23          6           0.006324784   -0.039025550   -0.024609706
   24          1          -0.001843542    0.012795140    0.009899727
   25          6           0.011186537    0.014022204    0.032784345
   26          1           0.001989547   -0.011377834   -0.009593606
   27          1          -0.010375850    0.007021317   -0.009117664
 -------------------------------------------------------------------
 Cartesian Forces:  Max     0.043323092 RMS     0.009409828
 Leave Link  716 at Sat Aug  2 14:53:21 2008, MaxMem=  536870912 cpu:       0.1
 (Enter /usr/local/Chem-Apps/g03_d01/g03/l103.exe)

 GradGradGradGradGradGradGradGradGradGradGradGradGradGradGradGradGradGrad
 Berny optimization.
 Internal  Forces:  Max     0.021670786 RMS     0.003987712
 Search for a local minimum.
 Step number   1 out of a maximum of 162
 All quantities printed in internal units (Hartrees-Bohrs-Radians)
 Swaping is turned off.
 Second derivative matrix not updated -- first step.
     Eigenvalues ---    0.00230   0.00237   0.00237   0.00485   0.00630
     Eigenvalues ---    0.00715   0.01193   0.01215   0.01251   0.01265
     Eigenvalues ---    0.01658   0.02681   0.02681   0.02939   0.03269
     Eigenvalues ---    0.03626   0.03751   0.03989   0.04148   0.04356
     Eigenvalues ---    0.04628   0.04807   0.05200   0.05410   0.05657
     Eigenvalues ---    0.06067   0.07083   0.07222   0.08382   0.08466
     Eigenvalues ---    0.08669   0.08789   0.10062   0.10640   0.11416
     Eigenvalues ---    0.11520   0.11889   0.12170   0.12376   0.13207
     Eigenvalues ---    0.13944   0.16000   0.16000   0.16000   0.16000
     Eigenvalues ---    0.16062   0.16486   0.17956   0.19709   0.21925
     Eigenvalues ---    0.21983   0.22000   0.25000   0.28519   0.28519
     Eigenvalues ---    0.32482   0.33783   0.34125   0.34539   0.37230
     Eigenvalues ---    0.37230   0.37230   0.37230   0.37230   0.38615
     Eigenvalues ---    0.40300   0.46311   0.47320   0.48534   0.50772
     Eigenvalues ---    0.53483   0.53825   0.53930   0.55923   0.60281
     Eigenvalues --- 1000.000001000.000001000.000001000.000001000.00000
     Eigenvalues --- 1000.000001000.000001000.000001000.000001000.00000
     Eigenvalues --- 1000.000001000.000001000.000001000.000001000.00000
     Eigenvalues --- 1000.000001000.000001000.000001000.000001000.00000
     Eigenvalues --- 1000.000001000.000001000.000001000.000001000.00000
     Eigenvalues --- 1000.000001000.000001000.000001000.000001000.00000
     Eigenvalues --- 1000.000001000.000001000.000001000.000001000.00000
     Eigenvalues --- 1000.000001000.000001000.000001000.000001000.00000
     Eigenvalues --- 1000.000001000.000001000.000001000.000001000.00000
     Eigenvalues --- 1000.000001000.000001000.000001000.000001000.00000
     Eigenvalues --- 1000.000001000.000001000.000001000.000001000.00000
     Eigenvalues --- 1000.000001000.000001000.000001000.000001000.00000
     Eigenvalues --- 1000.000001000.000001000.000001000.000001000.00000
     Eigenvalues --- 1000.000001000.000001000.000001000.000001000.00000
     Eigenvalues --- 1000.000001000.000001000.000001000.000001000.00000
     Eigenvalues --- 1000.000001000.00000
 Angle between quadratic step and forces=  40.24 degrees.
 Linear search not attempted -- option 19 set.
 Iteration  1 RMS(Cart)=  0.03895455 RMS(Int)=  0.00083685
 Iteration  2 RMS(Cart)=  0.00143711 RMS(Int)=  0.00007950
 Iteration  3 RMS(Cart)=  0.00000174 RMS(Int)=  0.00007949
 Iteration  4 RMS(Cart)=  0.00000000 RMS(Int)=  0.00007949
 Variable       Old X    -DE/DX   Delta X   Delta X   Delta X     New X
                                 (Linear)    (Quad)   (Total)
    R1        2.07698  -0.00214   0.00000  -0.00633  -0.00633   2.07065
    R2        2.07119  -0.00002   0.00000  -0.00005  -0.00005   2.07114
    R3        2.79730  -0.00163   0.00000  -0.00473  -0.00473   2.79257
    R4        2.91018  -0.00039   0.00000  -0.00137  -0.00137   2.90881
    R5        1.94216  -0.00025   0.00000  -0.00036  -0.00035   1.94181
    R6        3.80576   0.00005   0.00000  -0.00022  -0.00022   3.80554
    R7        1.94375  -0.00019   0.00000  -0.00068  -0.00067   1.94308
    R8        4.13362  -0.00024   0.00000  -0.00400  -0.00400   4.12962
    R9        2.92880   0.00018   0.00000   0.00054   0.00054   2.92934
   R10        2.91868   0.00048   0.00000   0.00069   0.00069   2.91937
   R11        3.81570  -0.00009   0.00000  -0.00028  -0.00028   3.81542
   R12        3.95094   0.00004   0.00000  -0.00189  -0.00190   3.94904
   R13        3.45360  -0.00008   0.00000   0.00013   0.00013   3.45373
   R14        3.90450  -0.00014   0.00000  -0.00348  -0.00348   3.90102
   R15        3.48152  -0.00002   0.00000  -0.00036  -0.00036   3.48115
   R16        1.84502   0.00024   0.00000   0.00021   0.00020   1.84522
   R17        1.84611   0.00007   0.00000   0.00020   0.00021   1.84632
   R18        1.86811   0.00005   0.00000   0.00021   0.00021   1.86832
   R19        1.83205   0.00005   0.00000   0.00010   0.00010   1.83215
   R20        3.97150   0.00012   0.00000   0.00114   0.00114   3.97264
   R21        1.85794   0.00006   0.00000   0.00012   0.00012   1.85807
   R22        1.82891   0.00002   0.00000   0.00004   0.00004   1.82895
   R23        2.02201   0.02167   0.00000   0.05821   0.05821   2.08021
   R24        2.02201   0.01944   0.00000   0.05222   0.05222   2.07423
   R25        2.91018  -0.01478   0.00000  -0.05184  -0.05184   2.85834
   R26        2.02201   0.01594   0.00000   0.04281   0.04281   2.06481
   R27        2.56096  -0.01572   0.00000  -0.02915  -0.02915   2.53181
   R28        2.02201   0.01467   0.00000   0.03940   0.03940   2.06140
   R29        2.02201   0.01501   0.00000   0.04031   0.04031   2.06231
    A1        1.87283   0.00012   0.00000  -0.00067  -0.00062   1.87221
    A2        1.84944   0.00129   0.00000   0.01911   0.01911   1.86855
    A3        1.94330  -0.00103   0.00000  -0.00338  -0.00350   1.93980
    A4        1.88092  -0.00101   0.00000  -0.01198  -0.01197   1.86895
    A5        1.94882   0.00007   0.00000  -0.00567  -0.00571   1.94311
    A6        1.96313   0.00060   0.00000   0.00334   0.00328   1.96642
[...]
 Alpha virt. eigenvalues --    0.19857   0.20057   0.20389   0.20515   0.21230
 Alpha virt. eigenvalues --    0.21894   0.22322   0.22334   0.22936   0.23053
 Alpha virt. eigenvalues --    0.23914   0.24162   0.24649   0.24755   0.25701
 Alpha virt. eigenvalues --    0.26107   0.26711   0.27416   0.28419   0.29001
 Alpha virt. eigenvalues --    0.30225   0.30913   0.31345   0.31826   0.33217
 Alpha virt. eigenvalues --    0.34041   0.34521   0.35033   0.35429   0.36440
 Alpha virt. eigenvalues --    0.36878   0.37988   0.38577   0.38990   0.39401
 Alpha virt. eigenvalues --    0.40761   0.41454   0.42205   0.43056   0.43202
 Alpha virt. eigenvalues --    0.44254   0.45097   0.45396   0.46165   0.47046
 Alpha virt. eigenvalues --    0.47551   0.48327   0.49802   0.50123   0.50831
 Alpha virt. eigenvalues --    0.51237   0.52845   0.53939   0.54217   0.55041
 Alpha virt. eigenvalues --    0.56035   0.56890   0.57676   0.58145   0.58817
 Alpha virt. eigenvalues --    0.59676   0.60246   0.60585   0.61358   0.63602
 Alpha virt. eigenvalues --    0.64023   0.64192   0.65921   0.67152   0.68071
 Alpha virt. eigenvalues --    0.69364   0.70242   0.71207   0.71593   0.72874
 Alpha virt. eigenvalues --    0.74167   0.75243   0.76077   0.76888   0.77459
 Alpha virt. eigenvalues --    0.77987   0.78527   0.78871   0.79255   0.80182
 Alpha virt. eigenvalues --    0.80709   0.81463   0.83275   0.83483   0.84706
 Alpha virt. eigenvalues --    0.85171   0.86212   0.86992   0.87886   0.88336
 Alpha virt. eigenvalues --    0.89054   0.89244   0.90066   0.91403   0.92069
 Alpha virt. eigenvalues --    0.92553   0.93212   0.95236   0.96421   0.97270
 Alpha virt. eigenvalues --    0.97708   0.99011   0.99698   1.01370   1.01686
 Alpha virt. eigenvalues --    1.02774   1.03845   1.04582   1.04773   1.05965
 Alpha virt. eigenvalues --    1.06610   1.06773   1.08977   1.09398   1.09696
 Alpha virt. eigenvalues --    1.10766   1.11923   1.12506   1.13575   1.14131
 Alpha virt. eigenvalues --    1.15348   1.15851   1.16093   1.16946   1.17861
 Alpha virt. eigenvalues --    1.18444   1.19668   1.20629   1.20775   1.22149
 Alpha virt. eigenvalues --    1.22620   1.23391   1.24763   1.26005   1.27419
 Alpha virt. eigenvalues --    1.28858   1.29074   1.30995   1.32352   1.33503
 Alpha virt. eigenvalues --    1.34394   1.34525   1.35528   1.35690   1.36131
 Alpha virt. eigenvalues --    1.38264   1.39822   1.41719   1.43090   1.46758
 Alpha virt. eigenvalues --    1.48989   1.49410   1.51755   1.52061   1.53280
 Alpha virt. eigenvalues --    1.53743   1.54667   1.56209   1.57222   1.57653
 Alpha virt. eigenvalues --    1.59257   1.60508   1.62621   1.65728   1.66051
 Alpha virt. eigenvalues --    1.66394   1.69647   1.70607   1.71639   1.72704
 Alpha virt. eigenvalues --    1.73624   1.74183   1.75691   1.76401   1.77999
 Alpha virt. eigenvalues --    1.78826   1.79072   1.79561   1.80357   1.80759
 Alpha virt. eigenvalues --    1.81413   1.82990   1.84497   1.84833   1.87338
 Alpha virt. eigenvalues --    1.87687   1.88659   1.89698   1.90672   1.91495
 Alpha virt. eigenvalues --    1.92756   1.93932   1.95131   1.95514   1.97637
 Alpha virt. eigenvalues --    1.99375   2.01532   2.01906   2.02931   2.03900
 Alpha virt. eigenvalues --    2.04898   2.08909   2.10949   2.11321   2.12732
 Alpha virt. eigenvalues --    2.14372   2.15355   2.15753   2.19197   2.21008
 Alpha virt. eigenvalues --    2.25276   2.25985   2.27465   2.28304   2.30301
 Alpha virt. eigenvalues --    2.33065   2.33567   2.35264   2.36203   2.36670
 Alpha virt. eigenvalues --    2.39041   2.40190   2.43011   2.43469   2.45482
 Alpha virt. eigenvalues --    2.46386   2.47881   2.49239   2.50556   2.51464
 Alpha virt. eigenvalues --    2.52532   2.54724   2.54978   2.55873   2.58149
 Alpha virt. eigenvalues --    2.60666   2.62457   2.64259   2.67309   2.69074
 Alpha virt. eigenvalues --    2.69425   2.72225   2.77875   2.80422   2.84551
 Alpha virt. eigenvalues --    2.89109   2.96966   2.99600   3.12778   3.17006
 Alpha virt. eigenvalues --    3.20397   3.22023   3.22911   3.23429   3.25325
 Alpha virt. eigenvalues --    3.29113   3.29572   3.31354   3.32859   3.36524
 Alpha virt. eigenvalues --    3.38027   3.41730   3.46264   3.47320   3.49818
 Alpha virt. eigenvalues --    3.50276   3.54831   3.56913   3.62803   3.63593
 Alpha virt. eigenvalues --    3.68149   3.70416   3.71514   3.77534   3.78485
 Alpha virt. eigenvalues --    3.79267   3.83359   3.86973   4.90027   4.97477
 Alpha virt. eigenvalues --    5.04068   5.07800   5.22566   5.33868   5.37963
 Alpha virt. eigenvalues --    5.38628   5.42853   5.47823   5.49228   5.50680
 Alpha virt. eigenvalues --    5.51656   5.53343   5.56910   5.57643   5.58173
 Alpha virt. eigenvalues --    5.60727   5.69663   5.75069   6.84913   6.85328
 Alpha virt. eigenvalues --    6.86279   6.88952   6.94086   6.96609   7.02573
 Alpha virt. eigenvalues --    8.83921   8.94049   8.98597  10.09744  20.74054
 Alpha virt. eigenvalues --   20.77590  20.85545  20.97121  20.98599  35.14605
 Alpha virt. eigenvalues --   35.20804  35.27040  36.65756  36.79648  36.90106
 Alpha virt. eigenvalues --   36.93121  36.97891  37.00321  37.01904  37.03041
 Alpha virt. eigenvalues --   37.03677  37.04034  37.05242  37.06052  37.08166
 Alpha virt. eigenvalues --   37.16827  37.26225  59.04324
          Condensed to atoms (all electrons):
              1          2          3          4          5          6
     1  C    5.262504   0.398160   0.415075   0.111943  -0.029136  -0.105286
     2  H    0.398160   0.452845  -0.006509  -0.020731   0.001807   0.001195
     3  H    0.415075  -0.006509   0.461694  -0.016740  -0.002207   0.002183
     4  N    0.111943  -0.020731  -0.016740   6.777310   0.377902   0.092895
     5  H   -0.029136   0.001807  -0.002207   0.377902   0.377929  -0.026697
     6  P   -0.105286   0.001195   0.002183   0.092895  -0.026697  13.136340
     7  O    0.029689   0.000426   0.000399  -0.050309   0.002232   0.081788
     8  O   -0.004649  -0.000413   0.000348   0.017745  -0.004693   0.083698
     9  S    0.003949   0.001243  -0.000865   0.025638   0.001954   0.452089
    10  O   -0.003496  -0.000349   0.000413  -0.009974   0.018420  -0.020058
    11  H    0.001874   0.000001  -0.000006   0.000002  -0.000698   0.015866
    12  H    0.002631   0.000002  -0.000035  -0.002433  -0.001092   0.019158
    13  O   -0.025457   0.000630  -0.000273  -0.003211   0.000315  -0.020463
    14  H    0.001443  -0.000011   0.000002  -0.005355   0.000012   0.021161
    15  H    0.000584  -0.000031   0.000001   0.000901   0.000021   0.018516
    16  O   -0.008862  -0.001075   0.005892  -0.008325   0.000004  -0.005251
    17  H   -0.004478   0.000034   0.000244   0.001808  -0.000005   0.013507
    18  H    0.001036  -0.000012  -0.000206   0.000095   0.000002   0.012289
    19  H   -0.037722  -0.003137   0.001949   0.386321  -0.004452  -0.017943
    20  C    0.216659  -0.039387  -0.057649  -0.091574  -0.000420   0.005661
    21  H    0.031916   0.002370  -0.002116  -0.015935   0.001378   0.001198
    22  H   -0.009514  -0.002273   0.002362  -0.002376  -0.000124  -0.000501
    23  C   -0.074216   0.000092  -0.003425   0.036878   0.001001   0.000517
    24  H   -0.011894   0.000063   0.000571  -0.001307  -0.000001  -0.000353
    25  C    0.071313   0.004443   0.001204  -0.015240   0.000318   0.000049
    26  H    0.000177   0.000037   0.000001  -0.000203   0.000000  -0.000010
    27  H    0.000523  -0.000003  -0.000003   0.000146   0.000000   0.000014
              7          8          9         10         11         12
     1  C    0.029689  -0.004649   0.003949  -0.003496   0.001874   0.002631
     2  H    0.000426  -0.000413   0.001243  -0.000349   0.000001   0.000002
     3  H    0.000399   0.000348  -0.000865   0.000413  -0.000006  -0.000035
     4  N   -0.050309   0.017745   0.025638  -0.009974   0.000002  -0.002433
     5  H    0.002232  -0.004693   0.001954   0.018420  -0.000698  -0.001092
     6  P    0.081788   0.083698   0.452089  -0.020058   0.015866   0.019158
     7  O    9.058614  -0.077958  -0.008204  -0.021038   0.004153  -0.000636
     8  O   -0.077958   8.999012  -0.013289  -0.043927  -0.000610   0.013659
     9  S   -0.008204  -0.013289  16.203239  -0.000178  -0.000728  -0.000843
    10  O   -0.021038  -0.043927  -0.000178   8.102522   0.295335   0.287737
    11  H    0.004153  -0.000610  -0.000728   0.295335   0.395582  -0.011156
    12  H   -0.000636   0.013659  -0.000843   0.287737  -0.011156   0.382174
    13  O   -0.051902  -0.003029  -0.014790  -0.000018  -0.000209  -0.000021
    14  H    0.021421   0.000076  -0.005547  -0.000328   0.000015   0.000004
    15  H    0.003298  -0.000382   0.002269  -0.000032   0.000000   0.000000
    16  O   -0.001002  -0.046278  -0.013178  -0.000544  -0.000015   0.000088
    17  H   -0.000063   0.027261  -0.005718   0.000091   0.000001   0.000032
    18  H   -0.000264   0.003738   0.004435   0.000000   0.000000   0.000000
    19  H   -0.006735   0.001263  -0.002194   0.000108   0.000031   0.000066
    20  C   -0.006224  -0.000594   0.002450  -0.006246  -0.000053  -0.000823
    21  H   -0.000136   0.000408  -0.000087   0.000537  -0.000004  -0.000014
    22  H   -0.000042  -0.000140   0.000362  -0.000163   0.000000   0.000001
    23  C    0.000812  -0.000527   0.001281   0.002202  -0.000060   0.000165
    24  H    0.000000  -0.000047   0.000004  -0.000018   0.000000   0.000000
    25  C   -0.000008   0.000168   0.000540  -0.000085   0.000004  -0.000001
    26  H    0.000000  -0.000001   0.000003   0.000000   0.000000   0.000000
    27  H    0.000000   0.000000   0.000008   0.000000   0.000000   0.000000
             13         14         15         16         17         18
     1  C   -0.025457   0.001443   0.000584  -0.008862  -0.004478   0.001036
     2  H    0.000630  -0.000011  -0.000031  -0.001075   0.000034  -0.000012
     3  H   -0.000273   0.000002   0.000001   0.005892   0.000244  -0.000206
     4  N   -0.003211  -0.005355   0.000901  -0.008325   0.001808   0.000095
     5  H    0.000315   0.000012   0.000021   0.000004  -0.000005   0.000002
     6  P   -0.020463   0.021161   0.018516  -0.005251   0.013507   0.012289
     7  O   -0.051902   0.021421   0.003298  -0.001002  -0.000063  -0.000264
     8  O   -0.003029   0.000076  -0.000382  -0.046278   0.027261   0.003738
     9  S   -0.014790  -0.005547   0.002269  -0.013178  -0.005718   0.004435
    10  O   -0.000018  -0.000328  -0.000032  -0.000544   0.000091   0.000000
    11  H   -0.000209   0.000015   0.000000  -0.000015   0.000001   0.000000
    12  H   -0.000021   0.000004   0.000000   0.000088   0.000032   0.000000
    13  O    8.127968   0.284720   0.291670  -0.000123   0.000003  -0.000001
    14  H    0.284720   0.354096  -0.011426   0.000002   0.000000   0.000000
    15  H    0.291670  -0.011426   0.412121  -0.000002   0.000000   0.000000
    16  O   -0.000123   0.000002  -0.000002   8.121863   0.285725   0.291047
    17  H    0.000003   0.000000   0.000000   0.285725   0.354838  -0.013486
    18  H   -0.000001   0.000000   0.000000   0.291047  -0.013486   0.428211
    19  H    0.018330  -0.000814  -0.000790   0.000055  -0.000003   0.000000
    20  C    0.014409  -0.001184  -0.001183   0.000845   0.001377   0.001875
    21  H   -0.000124   0.000000   0.000000  -0.000005   0.000000   0.000000
    22  H    0.000173  -0.000002  -0.000003  -0.000019   0.000000   0.000000
    23  C   -0.002478   0.000116   0.000211   0.001813  -0.000342  -0.000823
    24  H    0.000002   0.000000   0.000000   0.000210  -0.000001   0.000000
    25  C    0.000186  -0.000014  -0.000030  -0.001013   0.000016   0.000064
    26  H   -0.000001   0.000000   0.000000   0.000001   0.000000   0.000000
    27  H    0.000000   0.000000   0.000000   0.000001   0.000000   0.000000
             19         20         21         22         23         24
     1  C   -0.037722   0.216659   0.031916  -0.009514  -0.074216  -0.011894
     2  H   -0.003137  -0.039387   0.002370  -0.002273   0.000092   0.000063
     3  H    0.001949  -0.057649  -0.002116   0.002362  -0.003425   0.000571
     4  N    0.386321  -0.091574  -0.015935  -0.002376   0.036878  -0.001307
     5  H   -0.004452  -0.000420   0.001378  -0.000124   0.001001  -0.000001
     6  P   -0.017943   0.005661   0.001198  -0.000501   0.000517  -0.000353
     7  O   -0.006735  -0.006224  -0.000136  -0.000042   0.000812   0.000000
     8  O    0.001263  -0.000594   0.000408  -0.000140  -0.000527  -0.000047
     9  S   -0.002194   0.002450  -0.000087   0.000362   0.001281   0.000004
    10  O    0.000108  -0.006246   0.000537  -0.000163   0.002202  -0.000018
    11  H    0.000031  -0.000053  -0.000004   0.000000  -0.000060   0.000000
    12  H    0.000066  -0.000823  -0.000014   0.000001   0.000165   0.000000
    13  O    0.018330   0.014409  -0.000124   0.000173  -0.002478   0.000002
    14  H   -0.000814  -0.001184   0.000000  -0.000002   0.000116   0.000000
    15  H   -0.000790  -0.001183   0.000000  -0.000003   0.000211   0.000000
    16  O    0.000055   0.000845  -0.000005  -0.000019   0.001813   0.000210
    17  H   -0.000003   0.001377   0.000000   0.000000  -0.000342  -0.000001
    18  H    0.000000   0.001875   0.000000   0.000000  -0.000823   0.000000
    19  H    0.373014   0.002094   0.000036   0.000953  -0.000012  -0.000001
    20  C    0.002094   5.313992   0.363655   0.389228   0.383765  -0.021016
    21  H    0.000036   0.363655   0.465877  -0.010473  -0.034358  -0.001563
    22  H    0.000953   0.389228  -0.010473   0.485027  -0.019232   0.002041
    23  C   -0.000012   0.383765  -0.034358  -0.019232   4.788940   0.407085
    24  H   -0.000001  -0.021016  -0.001563   0.002041   0.407085   0.493635
    25  C   -0.000108  -0.141926   0.008258  -0.012388   0.320903  -0.019313
    26  H    0.000000  -0.000433   0.000003   0.003666   0.004245   0.002215
    27  H    0.000000  -0.002739  -0.000050   0.000037   0.011942  -0.003686
             25         26         27
     1  C    0.071313   0.000177   0.000523
     2  H    0.004443   0.000037  -0.000003
     3  H    0.001204   0.000001  -0.000003
     4  N   -0.015240  -0.000203   0.000146
     5  H    0.000318   0.000000   0.000000
     6  P    0.000049  -0.000010   0.000014
     7  O   -0.000008   0.000000   0.000000
     8  O    0.000168  -0.000001   0.000000
     9  S    0.000540   0.000003   0.000008
    10  O   -0.000085   0.000000   0.000000
    11  H    0.000004   0.000000   0.000000
    12  H   -0.000001   0.000000   0.000000
    13  O    0.000186  -0.000001   0.000000
    14  H   -0.000014   0.000000   0.000000
    15  H   -0.000030   0.000000   0.000000
    16  O   -0.001013   0.000001   0.000001
    17  H    0.000016   0.000000   0.000000
    18  H    0.000064   0.000000   0.000000
    19  H   -0.000108   0.000000   0.000000
    20  C   -0.141926  -0.000433  -0.002739
    21  H    0.008258   0.000003  -0.000050
    22  H   -0.012388   0.003666   0.000037
    23  C    0.320903   0.004245   0.011942
    24  H   -0.019313   0.002215  -0.003686
    25  C    5.514190   0.373544   0.382715
    26  H    0.373544   0.506991  -0.023979
    27  H    0.382715  -0.023979   0.494982
 Mulliken atomic charges:
              1
     1  C   -0.234765
     2  H    0.210583
     3  H    0.197694
     4  N   -0.585870
     5  H    0.286232
     6  P    1.238438
     7  O   -0.978311
     8  O   -0.950838
     9  S   -0.633844
    10  O   -0.600912
    11  H    0.300673
    12  H    0.311336
    13  O   -0.616306
    14  H    0.341613
    15  H    0.284287
    16  O   -0.621854
    17  H    0.339159
    18  H    0.272002
    19  H    0.289690
    20  C   -0.324558
    21  H    0.189226
    22  H    0.173400
    23  C    0.173505
    24  H    0.153373
    25  C   -0.487789
    26  H    0.133745
    27  H    0.140090
 Sum of Mulliken charges=  -1.00000
 Atomic charges with hydrogens summed into heavy atoms:
              1
     1  C    0.173512
     2  H    0.000000
     3  H    0.000000
     4  N   -0.009948
     5  H    0.000000
     6  P    1.238438
     7  O   -0.978311
     8  O   -0.950838
     9  S   -0.633844
    10  O    0.011098
    11  H    0.000000
    12  H    0.000000
    13  O    0.009594
    14  H    0.000000
    15  H    0.000000
    16  O   -0.010693
    17  H    0.000000
    18  H    0.000000
    19  H    0.000000
    20  C    0.038068
    21  H    0.000000
    22  H    0.000000
    23  C    0.326878
    24  H    0.000000
    25  C   -0.213953
    26  H    0.000000
    27  H    0.000000
 Sum of Mulliken charges=  -1.00000
 Electronic spatial extent (au):  <R**2>=  3788.1839
 Charge=    -1.0000 electrons
 Dipole moment (field-independent basis, Debye):
    X=   -10.1920    Y=    -3.8186    Z=    -0.6108  Tot=    10.9010
 Quadrupole moment (field-independent basis, Debye-Ang):
   XX=  -113.1866   YY=  -126.8270   ZZ=  -113.5436
   XY=     3.7268   XZ=     1.7587   YZ=    -1.6219
 Traceless Quadrupole moment (field-independent basis, Debye-Ang):
   XX=     4.6658   YY=    -8.9746   ZZ=     4.3088
   XY=     3.7268   XZ=     1.7587   YZ=    -1.6219
 Octapole moment (field-independent basis, Debye-Ang**2):
  XXX=   -33.5310  YYY=   -45.3896  ZZZ=   -24.0239  XYY=   -18.3101
  XXY=     4.3620  XXZ=     4.0583  XZZ=   -21.3125  YZZ=     6.1110
  YYZ=     8.2602  XYZ=    -4.0512
 Hexadecapole moment (field-independent basis, Debye-Ang**3):
 XXXX= -3024.8223 YYYY= -1686.2412 ZZZZ= -1212.4896 XXXY=   -40.1832
 XXXZ=    96.6621 YYYX=    42.6422 YYYZ=  -103.6881 ZZZX=   -17.0817
 ZZZY=    78.8837 XXYY=  -713.0476 XXZZ=  -705.4301 YYZZ=  -381.6141
 XXYZ=    23.3742 YYXZ=    35.5144 ZZXY=    -8.4332
 N-N= 1.031621400508D+03 E-N=-5.228665022907D+03  KE= 1.326602128629D+03
 Calculating spin-rotation constants.
 Leave Link  601 at Sat Aug  2 16:47:17 2008, MaxMem= 1073741824 cpu:     161.8
 (Enter /usr/local/Chem-Apps/g03_d01/g03/l9999.exe)
 1\1\ SGI ALTIX 4700 1.6GHZ/9MB-MAGELLAN\SP\RB3LYP\Gen\C4H15N1O5P1S1(1-
 )\IK1\02-Aug-2008\0\\#p nmr=giao b3lyp/Gen scf=tight integral=(grid=ul
 trafine) guess=read scrf=(pcm,solvent=water,read) geom=checkpoint\\Mol
 ecule 3, NMR.\\-1,1\C,0,-1.6293269299,0.0879707984,-0.7158658582\H,0,-
 1.2730458439,0.3842834621,-1.7087894834\H,0,-1.7193337101,1.0028780124
 ,-0.1175667067\N,0,-0.5733998404,-0.7392663914,-0.1040493349\H,0,-0.83
 84367807,-1.077722845,0.8303264586\P,0,1.1836357475,0.1522438492,0.306
 8965821\O,0,1.8823228671,-1.1457793647,0.7816134455\O,0,0.685701543,1.
 1213680812,1.4062490058\S,0,1.7245107636,0.9249546031,-1.4750517948\O,
 0,-0.2471014396,-1.1106292726,2.8817820459\H,0,0.5618745174,-1.5321757
 802,2.5425461085\H,0,-0.0369876411,-0.1729255099,2.6822712711\O,0,1.30
 59152921,-2.6799231678,-1.4297310206\H,0,1.6741171132,-2.3007503087,-0
 .5926555758\H,0,1.5872547774,-2.0123700971,-2.0730555241\O,0,-0.389937
 5196,3.4171309794,0.2153419886\H,0,-0.0230451199,2.6902329884,0.767150
 1085\H,0,0.0936648194,3.274921541,-0.6107117354\H,0,-0.31089515,-1.546
 1881834,-0.684229835\C,0,-2.975691536,-0.6489054369,-0.8065405734\H,0,
 -3.2709304175,-0.9616408966,0.2096992466\H,0,-2.8666939688,-1.56286652
 51,-1.410223591\C,0,-4.05313206,0.2240216743,-1.387151144\H,0,-4.23803
 32944,1.1657653639,-0.8595298035\C,0,-4.7699660116,-0.053230864,-2.481
 6771418\H,0,-4.6148700623,-0.9740312806,-3.0487323199\H,0,-5.533185555
 ,0.6323442206,-2.8519991588\\Version=IA64L-G03RevD.01\State=1-A\HF=-13
 32.355084\RMSD=3.663e-09\Thermal=0.\Dipole=-3.6855501,-1.310987,-1.758
 3549\PG=C01 [X(C4H15N1O5P1S1)]\\@


 CONTRAIWISE...CONTINUED TWEEDLEDEE, IF IT WAS SO, IT MIGHT BE,
 AND IF IT WERE SO, IT WOULD BE.....
 BUT AS IT ISN'T, IT AIN'T....
 THAT'S LOGIC.....
 ALICE THROUGH THE LOOKING GLASS
 Job cpu time:  0 days  0 hours 12 minutes 25.5 seconds.
 File lengths (MBytes):  RWF=    283 Int=      0 D2E=      0 Chk=     24 Scr=      1
 Normal termination of Gaussian 03 at Sat Aug  2 16:47:18 2008.
