 Entering Gaussian System, Link 0=/usr/local/Chem-Apps/g03_d01/g03/g03
 Initial command:
 /usr/local/Chem-Apps/g03_d01/g03/l1.exe /scratch/LSF_64691/Gau-22954.inp -scrdir=/scratch/LSF_64691/
 Entering Link 1 = /usr/local/Chem-Apps/g03_d01/g03/l1.exe PID=     22958.
  
 Copyright (c) 1988,1990,1992,1993,1995,1998,2003,2004, Gaussian, Inc.
                  All Rights Reserved.
  
 This is the Gaussian(R) 03 program.  It is based on the
 the Gaussian(R) 98 system (copyright 1998, Gaussian, Inc.),
 the Gaussian(R) 94 system (copyright 1995, Gaussian, Inc.),
 the Gaussian 92(TM) system (copyright 1992, Gaussian, Inc.),
 the Gaussian 90(TM) system (copyright 1990, Gaussian, Inc.),
 the Gaussian 88(TM) system (copyright 1988, Gaussian, Inc.),
 the Gaussian 86(TM) system (copyright 1986, Carnegie Mellon
 University), and the Gaussian 82(TM) system (copyright 1983,
 Carnegie Mellon University). Gaussian is a federally registered
 trademark of Gaussian, Inc.
  
 This software contains proprietary and confidential information,
 including trade secrets, belonging to Gaussian, Inc.
  
 This software is provided under written license and may be
 used, copied, transmitted, or stored only in accord with that
 written license.
  
 The following legend is applicable only to US Government
 contracts under FAR:
  
                    RESTRICTED RIGHTS LEGEND
  
 Use, reproduction and disclosure by the US Government is
 subject to restrictions as set forth in subparagraphs (a)
 and (c) of the Commercial Computer Software - Restricted
 Rights clause in FAR 52.227-19.
  
 Gaussian, Inc.
 340 Quinnipiac St., Bldg. 40, Wallingford CT 06492
  
  
 ---------------------------------------------------------------
 Warning -- This program may not be used in any manner that
 competes with the business of Gaussian, Inc. or will provide
 assistance to any competitor of Gaussian, Inc.  The licensee
 of this program is prohibited from giving any competitor of
 Gaussian, Inc. access to this program.  By using this program,
 the user acknowledges that Gaussian, Inc. is engaged in the
 business of creating and licensing software in the field of
 computational chemistry and represents and warrants to the
 licensee that it is not a competitor of Gaussian, Inc. and that
 it will not use this program in any manner prohibited above.
 ---------------------------------------------------------------
  

 Cite this work as:
 Gaussian 03, Revision D.01,
 M. J. Frisch, G. W. Trucks, H. B. Schlegel, G. E. Scuseria, 
 M. A. Robb, J. R. Cheeseman, J. A. Montgomery, Jr., T. Vreven, 
 K. N. Kudin, J. C. Burant, J. M. Millam, S. S. Iyengar, J. Tomasi, 
 V. Barone, B. Mennucci, M. Cossi, G. Scalmani, N. Rega, 
 G. A. Petersson, H. Nakatsuji, M. Hada, M. Ehara, K. Toyota, 
 R. Fukuda, J. Hasegawa, M. Ishida, T. Nakajima, Y. Honda, O. Kitao, 
 H. Nakai, M. Klene, X. Li, J. E. Knox, H. P. Hratchian, J. B. Cross, 
 V. Bakken, C. Adamo, J. Jaramillo, R. Gomperts, R. E. Stratmann, 
 O. Yazyev, A. J. Austin, R. Cammi, C. Pomelli, J. W. Ochterski, 
 P. Y. Ayala, K. Morokuma, G. A. Voth, P. Salvador, J. J. Dannenberg, 
 V. G. Zakrzewski, S. Dapprich, A. D. Daniels, M. C. Strain, 
 O. Farkas, D. K. Malick, A. D. Rabuck, K. Raghavachari, 
 J. B. Foresman, J. V. Ortiz, Q. Cui, A. G. Baboul, S. Clifford, 
 J. Cioslowski, B. B. Stefanov, G. Liu, A. Liashenko, P. Piskorz, 
 I. Komaromi, R. L. Martin, D. J. Fox, T. Keith, M. A. Al-Laham, 
 C. Y. Peng, A. Nanayakkara, M. Challacombe, P. M. W. Gill, 
 B. Johnson, W. Chen, M. W. Wong, C. Gonzalez, and J. A. Pople, 
 Gaussian, Inc., Wallingford CT, 2004.
 
 ******************************************
 Gaussian 03:  IA64L-G03RevD.01 13-Oct-2005
                 9-Jul-2008 
 ******************************************
 %NProcShared=8
 Will use up to    8 processors via shared memory.
 %Mem=4GB
 %Chk=phosphamine_b.chk
 Default route:  MaxDisk=64GB Cachesize=589840
 ----------------------------------------------------------------------
 #p opt=gdiis b3lyp/cc-pVDZ scf=(tight,novaracc,noincfock) integral=(gr
 id=ultrafine) guess=read geom=checkpoint scrf=(pcm,solvent=water,read)
 ----------------------------------------------------------------------
 1/4=589840,14=-1,18=20,19=11,26=3,29=2,38=1,40=2/1,3;
 2/4=589840,9=110,40=1/2;
 3/4=589840,5=16,11=2,16=1,25=1,30=1,70=2203,71=1,72=1,74=-5,75=5/1,2,3;
 4/4=589840,5=1/1;
 5/4=589840,5=100002,32=2,38=6,53=1/2;
 6/4=589840,7=2,8=2,9=2,10=2,28=1/1;
 7/4=589840/1,2,3,16;
 1/4=589840,14=-1,18=20,19=11/3(3);
 2/4=589840,9=110/2;
 6/4=589840,7=2,8=2,9=2,10=2,19=2,28=1/1;
 99/4=589840/99;
 2/4=589840,9=110/2;
 3/4=589840,5=16,11=2,16=1,25=1,30=1,70=2205,71=1,72=1,74=-5,75=5/1,2,3;
 4/4=589840,5=5,16=3/1;
 5/4=589840,5=100002,32=2,38=1,53=1/2;
 7/4=589840/1,2,3,16;
 1/4=589840,14=-1,18=20,19=11/3(-5);
 2/4=589840,9=110/2;
 6/4=589840,7=2,8=2,9=2,10=2,19=2,28=1/1;
 99/4=589840,9=1/99;
 Leave Link    1 at Wed Jul  9 14:43:12 2008, MaxMem=  536870912 cpu:       1.7
 (Enter /usr/local/Chem-Apps/g03_d01/g03/l101.exe)
 -----------------------------
 Phosphamine form B, geometry.
 -----------------------------
 Redundant internal coordinates taken from checkpoint file:
 phosphamine_b.chk
 Charge = -1 Multiplicity = 1
 C,0,-1.4062216519,0.0484417634,0.43496097
 H,0,-1.1220048368,-0.2396078024,1.4668456304
 H,0,-1.331150265,1.1483050954,0.357043189
 C,0,-2.7872919905,-0.4392815714,0.1013372335
 H,0,-2.9370035473,-1.5280051682,0.1464996994
 C,0,-3.8121670235,0.3534776463,-0.2279413859
 H,0,-3.6957835289,1.4416120426,-0.2810463073
 H,0,-4.8031084408,-0.0538802637,-0.4482891106
 P,0,1.5549779653,0.0894026757,0.0184024704
 O,0,1.3517749813,1.6046112913,-0.123161867
 O,0,2.268875669,-0.6563828555,-1.1164111954
 O,0,1.626938932,-0.5015285773,1.434151878
 H,0,-0.5377852479,-0.2798669679,-1.4276533585
 H,0,-0.355822813,-1.5472490946,-0.393903848
 N,0,-0.3555204946,-0.5188248393,-0.4431863402
 Recover connectivity data from disk.
                    Isotopes and Nuclear Properties:
 (Nuclear quadrupole moments (NQMom) in fm**2, nuclear magnetic moments (NMagM)
  in nuclear magnetons)

  Atom         1           2           3           4           5           6           7           8           9          10
 IAtWgt=          12           1           1          12           1          12           1           1          31          16
 AtmWgt=  12.0000000   1.0078250   1.0078250  12.0000000   1.0078250  12.0000000   1.0078250   1.0078250  30.9737634  15.9949146
 NucSpn=           0           1           1           0           1           0           1           1           1           0
 AtZEff=  -3.6000000  -1.0000000  -1.0000000  -3.6000000  -1.0000000  -3.6000000  -1.0000000  -1.0000000 -12.9400000  -5.6000000
 NQMom=    0.0000000   0.0000000   0.0000000   0.0000000   0.0000000   0.0000000   0.0000000   0.0000000   0.0000000   0.0000000
 NMagM=    0.0000000   2.7928460   2.7928460   0.0000000   2.7928460   0.0000000   2.7928460   2.7928460   1.1316000   0.0000000

  Atom        11          12          13          14          15
 IAtWgt=          16          16           1           1          14
 AtmWgt=  15.9949146  15.9949146   1.0078250   1.0078250  14.0030740
 NucSpn=           0           0           1           1           2
 AtZEff=  -5.6000000  -5.6000000  -1.0000000  -1.0000000  -4.5500000
 NQMom=    0.0000000   0.0000000   0.0000000   0.0000000   2.0440000
 NMagM=    0.0000000   0.0000000   2.7928460   2.7928460   0.4037610
 Leave Link  101 at Wed Jul  9 14:43:12 2008, MaxMem=  536870912 cpu:       0.4
 (Enter /usr/local/Chem-Apps/g03_d01/g03/l103.exe)

 GradGradGradGradGradGradGradGradGradGradGradGradGradGradGradGradGradGrad
 Berny optimization.
 Initialization pass.
                           ----------------------------
                           !    Initial Parameters    !
                           ! (Angstroms and Degrees)  !
 --------------------------                            --------------------------
 ! Name  Definition              Value          Derivative Info.                !
 --------------------------------------------------------------------------------
 ! R1    R(1,2)                  1.1084         estimate D2E/DX2                !
 ! R2    R(1,3)                  1.1052         estimate D2E/DX2                !
 ! R3    R(1,4)                  1.5022         estimate D2E/DX2                !
 ! R4    R(1,15)                 1.4822         estimate D2E/DX2                !
 ! R5    R(4,5)                  1.0999         estimate D2E/DX2                !
 ! R6    R(4,6)                  1.3369         estimate D2E/DX2                !
 ! R7    R(6,7)                  1.0956         estimate D2E/DX2                !
 ! R8    R(6,8)                  1.0938         estimate D2E/DX2                !
 ! R9    R(9,10)                 1.5353         estimate D2E/DX2                !
 ! R10   R(9,11)                 1.5342         estimate D2E/DX2                !
 ! R11   R(9,12)                 1.5358         estimate D2E/DX2                !
 ! R12   R(9,15)                 2.0574         estimate D2E/DX2                !
 ! R13   R(13,15)                1.0293         estimate D2E/DX2                !
 ! R14   R(14,15)                1.0296         estimate D2E/DX2                !
 ! A1    A(2,1,3)              107.8695         estimate D2E/DX2                !
 ! A2    A(2,1,4)              110.9857         estimate D2E/DX2                !
 ! A3    A(2,1,15)             105.6841         estimate D2E/DX2                !
 ! A4    A(3,1,4)              111.7101         estimate D2E/DX2                !
 ! A5    A(3,1,15)             106.9154         estimate D2E/DX2                !
 ! A6    A(4,1,15)             113.3213         estimate D2E/DX2                !
 ! A7    A(1,4,5)              115.9382         estimate D2E/DX2                !
 ! A8    A(1,4,6)              124.54           estimate D2E/DX2                !
 ! A9    A(5,4,6)              119.5203         estimate D2E/DX2                !
 ! A10   A(4,6,7)              121.2946         estimate D2E/DX2                !
 ! A11   A(4,6,8)              121.5528         estimate D2E/DX2                !
 ! A12   A(7,6,8)              117.151          estimate D2E/DX2                !
 ! A13   A(10,9,11)            118.2382         estimate D2E/DX2                !
 ! A14   A(10,9,12)            118.0945         estimate D2E/DX2                !
 ! A15   A(10,9,15)             98.5207         estimate D2E/DX2                !
 ! A16   A(11,9,12)            118.2307         estimate D2E/DX2                !
 ! A17   A(11,9,15)             97.033          estimate D2E/DX2                !
 ! A18   A(12,9,15)             97.8497         estimate D2E/DX2                !
 ! A19   A(1,15,9)             114.3428         estimate D2E/DX2                !
 ! A20   A(1,15,13)            110.6265         estimate D2E/DX2                !
 ! A21   A(1,15,14)            110.7147         estimate D2E/DX2                !
 ! A22   A(9,15,13)            108.0818         estimate D2E/DX2                !
 ! A23   A(9,15,14)            106.5481         estimate D2E/DX2                !
 ! A24   A(13,15,14)           106.1178         estimate D2E/DX2                !
 ! D1    D(2,1,4,5)            -60.2044         estimate D2E/DX2                !
 ! D2    D(2,1,4,6)            119.3469         estimate D2E/DX2                !
 ! D3    D(3,1,4,5)            179.3671         estimate D2E/DX2                !
 ! D4    D(3,1,4,6)             -1.0817         estimate D2E/DX2                !
 ! D5    D(15,1,4,5)            58.5243         estimate D2E/DX2                !
 ! D6    D(15,1,4,6)          -121.9245         estimate D2E/DX2                !
 ! D7    D(2,1,15,9)           -56.7007         estimate D2E/DX2                !
 ! D8    D(2,1,15,13)         -178.9961         estimate D2E/DX2                !
 ! D9    D(2,1,15,14)           63.6509         estimate D2E/DX2                !
 ! D10   D(3,1,15,9)            58.0405         estimate D2E/DX2                !
 ! D11   D(3,1,15,13)          -64.2549         estimate D2E/DX2                !
 ! D12   D(3,1,15,14)          178.3922         estimate D2E/DX2                !
 ! D13   D(4,1,15,9)          -178.4451         estimate D2E/DX2                !
 ! D14   D(4,1,15,13)           59.2595         estimate D2E/DX2                !
 ! D15   D(4,1,15,14)          -58.0935         estimate D2E/DX2                !
 ! D16   D(1,4,6,7)              0.421          estimate D2E/DX2                !
 ! D17   D(1,4,6,8)           -179.1128         estimate D2E/DX2                !
 ! D18   D(5,4,6,7)            179.9573         estimate D2E/DX2                !
 ! D19   D(5,4,6,8)              0.4234         estimate D2E/DX2                !
 ! D20   D(10,9,15,1)          -57.9627         estimate D2E/DX2                !
 ! D21   D(10,9,15,13)          65.7101         estimate D2E/DX2                !
 ! D22   D(10,9,15,14)         179.3925         estimate D2E/DX2                !
 ! D23   D(11,9,15,1)         -177.9977         estimate D2E/DX2                !
 ! D24   D(11,9,15,13)         -54.3249         estimate D2E/DX2                !
 ! D25   D(11,9,15,14)          59.3575         estimate D2E/DX2                !
 ! D26   D(12,9,15,1)           62.1262         estimate D2E/DX2                !
 ! D27   D(12,9,15,13)        -174.201          estimate D2E/DX2                !
 ! D28   D(12,9,15,14)         -60.5187         estimate D2E/DX2                !
 --------------------------------------------------------------------------------
 Trust Radius=3.00D-01 FncErr=1.00D-07 GrdErr=1.00D-06
 Number of steps in this run=  76 maximum allowed number of steps= 100.
 GradGradGradGradGradGradGradGradGradGradGradGradGradGradGradGradGradGrad

 Leave Link  103 at Wed Jul  9 14:43:12 2008, MaxMem=  536870912 cpu:       0.3
 (Enter /usr/local/Chem-Apps/g03_d01/g03/l202.exe)
                          Input orientation:                          
 ---------------------------------------------------------------------
 Center     Atomic     Atomic              Coordinates (Angstroms)
 Number     Number      Type              X           Y           Z
 ---------------------------------------------------------------------
    1          6             0       -1.406222    0.048442    0.434961
    2          1             0       -1.122005   -0.239608    1.466846
    3          1             0       -1.331150    1.148305    0.357043
    4          6             0       -2.787292   -0.439282    0.101337
    5          1             0       -2.937004   -1.528005    0.146500
    6          6             0       -3.812167    0.353478   -0.227941
    7          1             0       -3.695784    1.441612   -0.281046
    8          1             0       -4.803108   -0.053880   -0.448289
    9         15             0        1.554978    0.089403    0.018402
   10          8             0        1.351775    1.604611   -0.123162
   11          8             0        2.268876   -0.656383   -1.116411
   12          8             0        1.626939   -0.501529    1.434152
   13          1             0       -0.537785   -0.279867   -1.427653
   14          1             0       -0.355823   -1.547249   -0.393904
   15          7             0       -0.355520   -0.518825   -0.443186
 ---------------------------------------------------------------------
                    Distance matrix (angstroms):
                    1          2          3          4          5
     1  C    0.000000
     2  H    1.108394   0.000000
     3  H    1.105172   1.789331   0.000000
     4  C    1.502176   2.162791   2.169370   0.000000
     5  H    2.216233   2.587953   3.128215   1.099896   0.000000
     6  C    2.514172   3.234351   2.670094   1.336885   2.108576
     7  H    2.774109   3.536377   2.466714   2.123519   3.094700
     8  H    3.511330   4.153644   3.761423   2.124650   2.451360
     9  P    2.990636   3.061449   3.092845   4.375122   4.776015
    10  O    3.215542   3.471146   2.763494   4.621663   5.317859
    11  O    4.050910   4.283105   4.288141   5.205274   5.427324
    12  O    3.240511   2.761587   3.554210   4.611475   4.851935
    13  H    2.081178   2.953144   2.419555   2.724611   3.129226
    14  H    2.082447   2.399864   2.963309   2.717517   2.637214
    15  N    1.482197   2.076941   2.090824   2.493260   2.833766
                    6          7          8          9         10
     6  C    0.000000
     7  H    1.095628   0.000000
     8  H    1.093827   1.868324   0.000000
     9  P    5.379281   5.430344   6.376801   0.000000
    10  O    5.314378   5.052657   6.382703   1.535314   0.000000
    11  O    6.228024   6.377819   7.128980   1.534160   2.634333
    12  O    5.751301   5.920226   6.714870   1.535814   2.633774
    13  H    3.544293   3.775070   4.382146   2.570427   2.970420
    14  H    3.947989   4.483455   4.691637   2.549468   3.594915
    15  N    3.571505   3.876462   4.471827   2.057428   2.743402
                   11         12         13         14         15
    11  O    0.000000
    12  O    2.634660   0.000000
    13  H    2.848856   3.595149   0.000000
    14  H    2.864385   2.892519   1.645602   0.000000
    15  N    2.712860   2.730356   1.029319   1.029604   0.000000
 Stoichiometry    C3H7NO3P(1-)
 Framework group  C1[X(C3H7NO3P)]
 Deg. of freedom    39
 Full point group                 C1
 Largest Abelian subgroup         C1      NOp   1
 Largest concise Abelian subgroup C1      NOp   1
                         Standard orientation:                         
 ---------------------------------------------------------------------
 Center     Atomic     Atomic              Coordinates (Angstroms)
 Number     Number      Type              X           Y           Z
 ---------------------------------------------------------------------
    1          6             0       -1.406222    0.048442    0.434961
    2          1             0       -1.122005   -0.239608    1.466846
    3          1             0       -1.331150    1.148305    0.357043
    4          6             0       -2.787292   -0.439282    0.101337
    5          1             0       -2.937004   -1.528005    0.146500
    6          6             0       -3.812167    0.353478   -0.227941
    7          1             0       -3.695784    1.441612   -0.281046
    8          1             0       -4.803108   -0.053880   -0.448289
    9         15             0        1.554978    0.089403    0.018402
   10          8             0        1.351775    1.604611   -0.123162
   11          8             0        2.268876   -0.656383   -1.116411
   12          8             0        1.626939   -0.501529    1.434152
   13          1             0       -0.537785   -0.279867   -1.427653
   14          1             0       -0.355823   -1.547249   -0.393904
   15          7             0       -0.355520   -0.518825   -0.443186
 ---------------------------------------------------------------------
 Rotational constants (GHZ):      3.8305768      0.7986381      0.7927423
 Leave Link  202 at Wed Jul  9 14:43:12 2008, MaxMem=  536870912 cpu:       0.3
 (Enter /usr/local/Chem-Apps/g03_d01/g03/l301.exe)
 Standard basis: CC-pVDZ (5D, 7F)
 There are   151 symmetry adapted basis functions of A   symmetry.
 Integral buffers will be    131072 words long.
 Raffenetti 2 integral format.
 Two-electron integral symmetry is turned on.
   151 basis functions,   353 primitive gaussians,   159 cartesian basis functions
    36 alpha electrons       36 beta electrons
       nuclear repulsion energy       464.0491340505 Hartrees.
 IExCor= 402 DFT=T Ex=B+HF Corr=LYP ExCW=0 ScaHFX=  0.200000
 ScaDFX=  0.800000  0.720000  1.000000  0.810000
 IRadAn=      5 IRanWt=     -1 IRanGd=            0 ICorTp=0
 NAtoms=   15 NActive=   15 NUniq=   15 SFac= 7.50D-01 NAtFMM=   80 NAOKFM=F Big=F
 Using the following non-standard input for PCM:
 RADII=UAKS
 TSARE=0.05
 --- end of non-standard input.
 ------------------------------------------------------------------------------
 United Atom Topological Model (UAKS parameters set).
  Nord Group  Hybr  Charge Alpha Radius          Bonded to
    1   CH2   sp3  -0.12   1.20  1.642   C4   [s]  N15  [s]
    4   CH    sp2  -0.12   1.20  1.823   C1   [s]  C6   [d]
    6   CH2   sp2  -0.12   1.20  2.002   C4   [d]
    9   P     sp3  -0.12   1.20  1.942   O10  [d]  O11  [d]  O12  [d]  N15  [s]
   10   O     sp2  -0.12   1.20  1.597   P9   [d]
   11   O     sp2  -0.12   1.20  1.597   P9   [d]
   12   O     sp2  -0.12   1.20  1.597   P9   [d]
   15   NH2   sp3  -0.12   1.20  1.746   C1   [s]  P9   [s]
 ------------------------------------------------------------------------------
 Polarizable Continuum Model (PCM)
 =================================
 Model                : PCM.
 Atomic radii         : UAKS (United Atom Topological Model).
 Polarization charges : Total charges.
 Charge compensation  : None.
 Solution method      : Matrix inversion.
 Cavity               : GePol (RMin=0.200 OFac=0.890).
                        Default sphere list used, NSphG=    8.
                        Tesserae with average area of 0.050 Ang**2.
 1st derivatives      : Analytical V*U(x)*V algorithm (CHGder, D1EAlg=0).
                        Cavity 1st derivative terms included.
 Solvent              : Water, Eps     =  78.390000
                               Eps(inf)=   1.776000
                               RSolv   =   1.385000 Ang.
 ------------------------------------------------------------------------------
 GePol: Number of tesserae being generated         =    4489
 GePol: Average area of tesserae                   =       0.04 Ang**2
 GePol: Minimum area of tessera                    =   0.10D-02 Ang**2
 GePol: Maximum area of tessera                    =    0.07898 Ang**2
 GePol: Number of small tesserae                   =       0
 GePol: Fraction of small tesserae (<1% of avg)    =       0.00%
 GePol: Total count of vertices                    =   14662
 GePol: Maximum number of vertices in a tessera    =       7
 GePol: Cavity surface area                        =    181.083 Ang**2
 GePol: Cavity volume                              =    179.190 Ang**3
 GePol: Maximum number of non-zero 1st derivatives =    1363
 Leave Link  301 at Wed Jul  9 14:43:13 2008, MaxMem=  536870912 cpu:       1.6
 (Enter /usr/local/Chem-Apps/g03_d01/g03/l302.exe)
 NPDir=0 NMtPBC=     1 NCelOv=     1 NCel=       1 NClECP=     1 NCelD=      1
         NCelK=      1 NCelE2=     1 NClLst=     1 CellRange=     0.0.
 One-electron integrals computed using PRISM.
 NBasis=   151 RedAO= T  NBF=   151
 NBsUse=   151 1.00D-06 NBFU=   151
 Precomputing XC quadrature grid using
 IXCGrd= 2 IRadAn=           5 IRanWt=          -1 IRanGd=           0.
 NRdTot=    1245 NPtTot=      333362 NUsed=      342138 NTot=      342170
 NSgBfM=   159   159   159   159.
 Leave Link  302 at Wed Jul  9 14:43:14 2008, MaxMem=  536870912 cpu:       3.9
 (Enter /usr/local/Chem-Apps/g03_d01/g03/l303.exe)
 DipDrv:  MaxL=1.
 Leave Link  303 at Wed Jul  9 14:43:14 2008, MaxMem=  536870912 cpu:       0.3
 (Enter /usr/local/Chem-Apps/g03_d01/g03/l401.exe)
 Initial guess read from the checkpoint file:
 phosphamine_b.chk
 Guess basis will be translated and rotated to current coordinates.
 Initial guess orbital symmetries:
       Occupied  (A) (A) (A) (A) (A) (A) (A) (A) (A) (A) (A) (A)
                 (A) (A) (A) (A) (A) (A) (A) (A) (A) (A) (A) (A)
                 (A) (A) (A) (A) (A) (A) (A) (A) (A) (A) (A) (A)
       Virtual   (A) (A) (A) (A) (A) (A) (A) (A) (A) (A) (A) (A)
                 (A) (A) (A) (A) (A) (A) (A) (A) (A) (A) (A) (A)
                 (A) (A) (A) (A) (A) (A) (A) (A) (A) (A) (A) (A)
                 (A) (A) (A) (A) (A) (A) (A) (A) (A) (A) (A) (A)
                 (A) (A) (A) (A) (A) (A) (A) (A) (A) (A) (A) (A)
                 (A) (A) (A) (A) (A) (A) (A) (A) (A) (A) (A) (A)
                 (A) (A) (A) (A) (A) (A) (A) (A) (A) (A) (A) (A)
                 (A) (A) (A) (A) (A) (A) (A) (A) (A) (A) (A) (A)
                 (A) (A) (A) (A) (A) (A) (A) (A) (A) (A) (A) (A)
                 (A) (A) (A) (A) (A) (A) (A)
 The electronic state of the initial guess is 1-A.
 Leave Link  401 at Wed Jul  9 14:43:15 2008, MaxMem=  536870912 cpu:       0.6
 (Enter /usr/local/Chem-Apps/g03_d01/g03/l502.exe)
 Closed shell SCF:
 Requested convergence on RMS density matrix=1.00D-08 within 128 cycles.
 Requested convergence on MAX density matrix=1.00D-06.
 Requested convergence on             energy=1.00D-06.
 No special actions if energy rises.
 Using DIIS extrapolation, IDIIS=  1040.
 Integral symmetry usage will be decided dynamically.
       342137 words used for storage of precomputed grid.
 Keep R1 integrals in memory in canonical form, NReq=   102448544.
 IEnd=    450127 IEndB=    450127 NGot= 536870912 MDV= 455557292
 LenX= 455557292
 Symmetry not used in FoFDir.
 MinBra= 0 MaxBra= 2 Meth= 1.
 IRaf=       0 NMat=   1 IRICut=       1 DoRegI=T DoRafI=F ISym2E= 0 JSym2E=0.

 Cycle   1  Pass 1  IDiag  1:
 E= -740.520788071050    
 DIIS: error= 1.40D-05 at cycle   1 NSaved=   1.
 NSaved= 1 IEnMin= 1 EnMin= -740.520788071050     IErMin= 1 ErrMin= 1.40D-05
 ErrMax= 1.40D-05 EMaxC= 1.00D-01 BMatC= 3.81D-08 BMatP= 3.81D-08
 IDIUse=1 WtCom= 1.00D+00 WtEn= 0.00D+00
 Coeff-Com:  0.100D+01
 Coeff:      0.100D+01
 Gap=     0.190 Goal=   None    Shift=    0.000
 RMSDP=3.06D-06 MaxDP=1.02D-04              OVMax= 1.12D-04

 Cycle   2  Pass 1  IDiag  1:
 E= -740.520788144843     Delta-E=       -0.000000073793 Rises=F Damp=F
 DIIS: error= 3.48D-06 at cycle   2 NSaved=   2.
 NSaved= 2 IEnMin= 2 EnMin= -740.520788144843     IErMin= 2 ErrMin= 3.48D-06
 ErrMax= 3.48D-06 EMaxC= 1.00D-01 BMatC= 3.85D-09 BMatP= 3.81D-08
 IDIUse=1 WtCom= 1.00D+00 WtEn= 0.00D+00
 Coeff-Com:  0.108D+00 0.892D+00
 Coeff:      0.108D+00 0.892D+00
 Gap=     0.190 Goal=   None    Shift=    0.000
 RMSDP=7.47D-07 MaxDP=1.81D-05 DE=-7.38D-08 OVMax= 1.87D-05

 Cycle   3  Pass 1  IDiag  1:
 E= -740.520788145881     Delta-E=       -0.000000001038 Rises=F Damp=F
 DIIS: error= 3.41D-06 at cycle   3 NSaved=   3.
 NSaved= 3 IEnMin= 3 EnMin= -740.520788145881     IErMin= 3 ErrMin= 3.41D-06
 ErrMax= 3.41D-06 EMaxC= 1.00D-01 BMatC= 3.34D-09 BMatP= 3.85D-09
 IDIUse=1 WtCom= 1.00D+00 WtEn= 0.00D+00
 Coeff-Com: -0.474D-02 0.481D+00 0.524D+00
 Coeff:     -0.474D-02 0.481D+00 0.524D+00
 Gap=     0.190 Goal=   None    Shift=    0.000
 RMSDP=3.82D-07 MaxDP=1.08D-05 DE=-1.04D-09 OVMax= 1.52D-05

 Cycle   4  Pass 1  IDiag  1:
 E= -740.520788148429     Delta-E=       -0.000000002548 Rises=F Damp=F
 DIIS: error= 1.73D-06 at cycle   4 NSaved=   4.
 NSaved= 4 IEnMin= 4 EnMin= -740.520788148429     IErMin= 4 ErrMin= 1.73D-06
 ErrMax= 1.73D-06 EMaxC= 1.00D-01 BMatC= 5.22D-10 BMatP= 3.34D-09
 IDIUse=1 WtCom= 1.00D+00 WtEn= 0.00D+00
 Coeff-Com: -0.139D-01 0.183D+00 0.317D+00 0.513D+00
 Coeff:     -0.139D-01 0.183D+00 0.317D+00 0.513D+00
 Gap=     0.190 Goal=   None    Shift=    0.000
 RMSDP=1.38D-07 MaxDP=4.64D-06 DE=-2.55D-09 OVMax= 5.15D-06

 Cycle   5  Pass 1  IDiag  1:
 E= -740.520788148819     Delta-E=       -0.000000000390 Rises=F Damp=F
 DIIS: error= 2.94D-07 at cycle   5 NSaved=   5.
 NSaved= 5 IEnMin= 5 EnMin= -740.520788148819     IErMin= 5 ErrMin= 2.94D-07
 ErrMax= 2.94D-07 EMaxC= 1.00D-01 BMatC= 2.79D-11 BMatP= 5.22D-10
 IDIUse=1 WtCom= 1.00D+00 WtEn= 0.00D+00
 Coeff-Com: -0.523D-02 0.320D-01 0.929D-01 0.248D+00 0.632D+00
 Coeff:     -0.523D-02 0.320D-01 0.929D-01 0.248D+00 0.632D+00
 Gap=     0.190 Goal=   None    Shift=    0.000
 RMSDP=3.55D-08 MaxDP=8.98D-07 DE=-3.90D-10 OVMax= 9.97D-07

 Cycle   6  Pass 1  IDiag  1:
 E= -740.520788148843     Delta-E=       -0.000000000024 Rises=F Damp=F
 DIIS: error= 1.31D-07 at cycle   6 NSaved=   6.
 NSaved= 6 IEnMin= 6 EnMin= -740.520788148843     IErMin= 6 ErrMin= 1.31D-07
 ErrMax= 1.31D-07 EMaxC= 1.00D-01 BMatC= 2.65D-12 BMatP= 2.79D-11
 IDIUse=1 WtCom= 1.00D+00 WtEn= 0.00D+00
 Coeff-Com: -0.159D-02 0.273D-02 0.235D-01 0.857D-01 0.312D+00 0.578D+00
 Coeff:     -0.159D-02 0.273D-02 0.235D-01 0.857D-01 0.312D+00 0.578D+00
 Gap=     0.190 Goal=   None    Shift=    0.000
 RMSDP=1.12D-08 MaxDP=3.79D-07 DE=-2.41D-11 OVMax= 6.81D-07

 Cycle   7  Pass 1  IDiag  1:
 E= -740.520788148850     Delta-E=       -0.000000000007 Rises=F Damp=F
 DIIS: error= 4.27D-08 at cycle   7 NSaved=   7.
 NSaved= 7 IEnMin= 7 EnMin= -740.520788148850     IErMin= 7 ErrMin= 4.27D-08
 ErrMax= 4.27D-08 EMaxC= 1.00D-01 BMatC= 3.48D-13 BMatP= 2.65D-12
 IDIUse=1 WtCom= 1.00D+00 WtEn= 0.00D+00
 Coeff-Com: -0.460D-03-0.113D-02 0.529D-02 0.259D-01 0.117D+00 0.323D+00
 Coeff-Com:  0.530D+00
 Coeff:     -0.460D-03-0.113D-02 0.529D-02 0.259D-01 0.117D+00 0.323D+00
 Coeff:      0.530D+00
 Gap=     0.190 Goal=   None    Shift=    0.000
 RMSDP=3.59D-09 MaxDP=1.33D-07 DE=-6.82D-12 OVMax= 2.41D-07

 Error on total polarization charges =  0.01117
 SCF Done:  E(RB+HF-LYP) =  -740.520788149     A.U. after    7 cycles
             Convg  =    0.3592D-08             -V/T =  2.0049
             S**2   =   0.0000
 KE= 7.368785838678D+02 PE=-2.690360251491D+03 EE= 7.489117454244D+02
 --------------------------------------------------------------------
 Variational PCM results
 =======================
 <psi(f)|   H    |psi(f)>                     (a.u.) =    -740.389559
 <psi(f)|H+V(f)/2|psi(f)>                     (a.u.) =    -740.520788
 Total free energy in solution:
  with all non electrostatic terms            (a.u.) =    -740.515867
 --------------------------------------------------------------------
 (Polarized solute)-Solvent               (kcal/mol) =     -82.35
 --------------------------------------------------------------------
 Cavitation energy                        (kcal/mol) =      18.56
 Dispersion energy                        (kcal/mol) =     -19.45
 Repulsion energy                         (kcal/mol) =       3.98
 Total non electrostatic                  (kcal/mol) =       3.09
 --------------------------------------------------------------------
 Partition over spheres:
 Sphere  on Atom  Surface  Charge   GEl     GCav    GDR
    1      C1       7.58  -0.082    1.85    1.62   -0.88
    2      C4      13.52  -0.027    0.18    1.81   -1.59
    3      C6      48.12   0.011   -0.63    4.28   -3.72
    4      P9       7.37   0.071   -5.11    1.24   -0.48
    5      O10     20.26   0.328  -22.47    2.50   -2.31
    6      O11     21.64   0.343  -23.24    2.49   -2.37
    7      O12     20.34   0.329  -22.41    2.50   -2.32
    8      N15     13.36  -0.187    3.50    2.11   -1.80
 Added spheres:    28.90   0.190  -14.03    0.00    0.00
 --------------------------------------------------------------------
 After PCM corrections, the SCF energy is  -740.520788149     a.u.
 --------------------------------------------------------------------
 Leave Link  502 at Wed Jul  9 14:52:50 2008, MaxMem=  536870912 cpu:     767.3
 (Enter /usr/local/Chem-Apps/g03_d01/g03/l601.exe)
 Copying SCF densities to generalized density rwf, ISCF=0 IROHF=0.

 **********************************************************************

            Population analysis using the SCF density.

 **********************************************************************

 Orbital symmetries:
       Occupied  (A) (A) (A) (A) (A) (A) (A) (A) (A) (A) (A) (A)
                 (A) (A) (A) (A) (A) (A) (A) (A) (A) (A) (A) (A)
                 (A) (A) (A) (A) (A) (A) (A) (A) (A) (A) (A) (A)
       Virtual   (A) (A) (A) (A) (A) (A) (A) (A) (A) (A) (A) (A)
                 (A) (A) (A) (A) (A) (A) (A) (A) (A) (A) (A) (A)
                 (A) (A) (A) (A) (A) (A) (A) (A) (A) (A) (A) (A)
                 (A) (A) (A) (A) (A) (A) (A) (A) (A) (A) (A) (A)
                 (A) (A) (A) (A) (A) (A) (A) (A) (A) (A) (A) (A)
                 (A) (A) (A) (A) (A) (A) (A) (A) (A) (A) (A) (A)
                 (A) (A) (A) (A) (A) (A) (A) (A) (A) (A) (A) (A)
                 (A) (A) (A) (A) (A) (A) (A) (A) (A) (A) (A) (A)
                 (A) (A) (A) (A) (A) (A) (A) (A) (A) (A) (A) (A)
                 (A) (A) (A) (A) (A) (A) (A)
 The electronic state is 1-A.
 Alpha  occ. eigenvalues --  -77.14131 -19.03198 -19.03197 -19.03159 -14.36044
 Alpha  occ. eigenvalues --  -10.21481 -10.19221 -10.18522  -6.59051  -4.75584
 Alpha  occ. eigenvalues --   -4.75177  -4.75176  -0.94576  -0.90615  -0.86092
 Alpha  occ. eigenvalues --   -0.86055  -0.77534  -0.66792  -0.56225  -0.51652
 Alpha  occ. eigenvalues --   -0.47610  -0.46701  -0.42832  -0.42216  -0.38343
 Alpha  occ. eigenvalues --   -0.36421  -0.34099  -0.33189  -0.33118  -0.27171
 Alpha  occ. eigenvalues --   -0.24464  -0.24426  -0.24311  -0.22236  -0.22199
 Alpha  occ. eigenvalues --   -0.18534
 Alpha virt. eigenvalues --    0.00503   0.07127   0.09248   0.09620   0.11917
 Alpha virt. eigenvalues --    0.13663   0.14582   0.15410   0.15983   0.16917
 Alpha virt. eigenvalues --    0.20649   0.24745   0.26256   0.30355   0.34390
 Alpha virt. eigenvalues --    0.41474   0.42619   0.44279   0.46615   0.47097
 Alpha virt. eigenvalues --    0.48875   0.49523   0.50229   0.53583   0.54130
 Alpha virt. eigenvalues --    0.56099   0.59534   0.61815   0.63080   0.64447
 Alpha virt. eigenvalues --    0.66051   0.66384   0.68354   0.70270   0.72657
 Alpha virt. eigenvalues --    0.73590   0.78144   0.82141   0.82854   0.84572
 Alpha virt. eigenvalues --    0.85130   0.90130   0.95785   1.00786   1.01211
 Alpha virt. eigenvalues --    1.03592   1.04854   1.05226   1.08286   1.08515
 Alpha virt. eigenvalues --    1.10289   1.11030   1.12917   1.14338   1.17319
 Alpha virt. eigenvalues --    1.20061   1.25381   1.25896   1.26497   1.29443
 Alpha virt. eigenvalues --    1.34729   1.42292   1.48145   1.53265   1.55720
 Alpha virt. eigenvalues --    1.58669   1.63485   1.64745   1.66315   1.68257
 Alpha virt. eigenvalues --    1.69576   1.71250   1.74691   1.79679   1.83206
 Alpha virt. eigenvalues --    1.84256   1.87732   1.90970   1.92732   1.93261
 Alpha virt. eigenvalues --    1.96658   1.99608   2.01088   2.07500   2.10428
 Alpha virt. eigenvalues --    2.16442   2.19231   2.20855   2.25282   2.30207
 Alpha virt. eigenvalues --    2.38310   2.42282   2.43779   2.49115   2.57140
 Alpha virt. eigenvalues --    2.60663   2.63681   2.68338   2.68831   2.69057
 Alpha virt. eigenvalues --    2.69325   2.70266   2.71485   2.73042   2.78782
 Alpha virt. eigenvalues --    2.82443   2.87045   2.87307   2.94786   3.03847
 Alpha virt. eigenvalues --    3.03909   3.10364   3.21621   3.35219   3.35283
          Condensed to atoms (all electrons):
              1          2          3          4          5          6
     1  C    4.650606   0.350706   0.353093   0.391613  -0.057958  -0.047783
     2  H    0.350706   0.655742  -0.035509  -0.016617  -0.003951   0.001752
     3  H    0.353093  -0.035509   0.663518  -0.015084   0.007752  -0.012057
     4  C    0.391613  -0.016617  -0.015084   4.707929   0.383997   0.710068
     5  H   -0.057958  -0.003951   0.007752   0.383997   0.697772  -0.033426
     6  C   -0.047783   0.001752  -0.012057   0.710068  -0.033426   4.629764
     7  H   -0.020697   0.000407   0.006986  -0.011372   0.010611   0.374697
     8  H    0.008390  -0.000379  -0.000137   0.002696  -0.016675   0.364901
     9  P   -0.008942   0.000399   0.000789   0.001415  -0.000156  -0.000131
    10  O   -0.003087  -0.001686   0.021339   0.000378   0.000003  -0.000005
    11  O   -0.000129   0.000052   0.000033  -0.000051  -0.000004   0.000000
    12  O   -0.004095   0.020856  -0.001322   0.000081   0.000027  -0.000003
    13  H   -0.034252   0.008529  -0.007177   0.002134  -0.000352   0.002658
    14  H   -0.029598  -0.006177   0.007326  -0.003422   0.005088   0.000002
    15  N    0.337994  -0.025257  -0.024314  -0.033615  -0.000135   0.000403
              7          8          9         10         11         12
     1  C   -0.020697   0.008390  -0.008942  -0.003087  -0.000129  -0.004095
     2  H    0.000407  -0.000379   0.000399  -0.001686   0.000052   0.020856
     3  H    0.006986  -0.000137   0.000789   0.021339   0.000033  -0.001322
     4  C   -0.011372   0.002696   0.001415   0.000378  -0.000051   0.000081
     5  H    0.010611  -0.016675  -0.000156   0.000003  -0.000004   0.000027
     6  C    0.374697   0.364901  -0.000131  -0.000005   0.000000  -0.000003
     7  H    0.672411  -0.054295  -0.000046  -0.000021   0.000000   0.000001
     8  H   -0.054295   0.668776   0.000002   0.000000   0.000000   0.000000
     9  P   -0.000046   0.000002  12.350223   0.599558   0.613753   0.598690
    10  O   -0.000021   0.000000   0.599558   8.127621  -0.028330  -0.028111
    11  O    0.000000   0.000000   0.613753  -0.028330   8.125867  -0.028253
    12  O    0.000001   0.000000   0.598690  -0.028111  -0.028253   8.130554
    13  H    0.000217  -0.000127   0.001201   0.001657   0.004084   0.000856
    14  H    0.000082  -0.000003   0.002445   0.000827   0.003485   0.002800
    15  N    0.000271  -0.000170   0.102305  -0.025429  -0.026162  -0.026068
             13         14         15
     1  C   -0.034252  -0.029598   0.337994
     2  H    0.008529  -0.006177  -0.025257
     3  H   -0.007177   0.007326  -0.024314
     4  C    0.002134  -0.003422  -0.033615
     5  H   -0.000352   0.005088  -0.000135
     6  C    0.002658   0.000002   0.000403
     7  H    0.000217   0.000082   0.000271
     8  H   -0.000127  -0.000003  -0.000170
     9  P    0.001201   0.002445   0.102305
    10  O    0.001657   0.000827  -0.025429
    11  O    0.004084   0.003485  -0.026162
    12  O    0.000856   0.002800  -0.026068
    13  H    0.555988  -0.017950   0.348881
    14  H   -0.017950   0.546184   0.350306
    15  N    0.348881   0.350306   6.180896
 Mulliken atomic charges:
              1
     1  C    0.114141
     2  H    0.051135
     3  H    0.034765
     4  C   -0.120152
     5  H    0.007407
     6  C    0.009159
     7  H    0.020748
     8  H    0.027021
     9  P    0.738494
    10  O   -0.664713
    11  O   -0.664345
    12  O   -0.666013
    13  H    0.133653
    14  H    0.138605
    15  N   -0.159905
 Sum of Mulliken charges=  -1.00000
 Atomic charges with hydrogens summed into heavy atoms:
              1
     1  C    0.200041
     2  H    0.000000
     3  H    0.000000
     4  C   -0.112745
     5  H    0.000000
     6  C    0.056927
     7  H    0.000000
     8  H    0.000000
     9  P    0.738494
    10  O   -0.664713
    11  O   -0.664345
    12  O   -0.666013
    13  H    0.000000
    14  H    0.000000
    15  N    0.112354
 Sum of Mulliken charges=  -1.00000
 Electronic spatial extent (au):  <R**2>=  1511.9885
 Charge=    -1.0000 electrons
 Dipole moment (field-independent basis, Debye):
    X=   -13.9359    Y=    -2.6793    Z=    -1.6345  Tot=    14.2850
 Quadrupole moment (field-independent basis, Debye-Ang):
   XX=   -76.8557   YY=   -61.7634   ZZ=   -64.7372
   XY=     1.8327   XZ=     2.4163   YZ=     1.1057
 Traceless Quadrupole moment (field-independent basis, Debye-Ang):
   XX=    -9.0703   YY=     6.0220   ZZ=     3.0483
   XY=     1.8327   XZ=     2.4163   YZ=     1.1057
 Octapole moment (field-independent basis, Debye-Ang**2):
  XXX=   -42.5216  YYY=   -18.8609  ZZZ=    -9.3553  XYY=   -17.4328
  XXY=     6.6207  XXZ=     4.0179  XZZ=   -14.1050  YZZ=     4.8163
  YYZ=     0.0381  XYZ=    -0.0585
 Hexadecapole moment (field-independent basis, Debye-Ang**3):
 XXXX= -1574.4242 YYYY=  -233.2005 ZZZZ=  -219.3100 XXXY=    30.8628
 XXXZ=    50.3364 YYYX=   -14.3162 YYYZ=     3.2393 ZZZX=    -6.4044
 ZZZY=     3.0041 XXYY=  -308.0703 XXZZ=  -348.3716 YYZZ=   -75.5934
 XXYZ=    -6.4204 YYXZ=     3.5356 ZZXY=    12.8610
 N-N= 4.640491340505D+02 E-N=-2.690360254920D+03  KE= 7.368785838678D+02
 No NMR shielding tensors so no spin-rotation constants.
 Leave Link  601 at Wed Jul  9 14:52:51 2008, MaxMem=  536870912 cpu:       2.8
 (Enter /usr/local/Chem-Apps/g03_d01/g03/l701.exe)
 Compute integral first derivatives.
 ... and contract with generalized density number  0.
 D1PCM: PCM CHGder 1st derivatives, ID1Alg=0 FixD1E=F DoIter=F I1PDM=0.
 Leave Link  701 at Wed Jul  9 14:53:07 2008, MaxMem=  536870912 cpu:      33.3
 (Enter /usr/local/Chem-Apps/g03_d01/g03/l702.exe)
 L702 exits ... SP integral derivatives will be done elsewhere.
 Leave Link  702 at Wed Jul  9 14:53:08 2008, MaxMem=  536870912 cpu:       0.0
 (Enter /usr/local/Chem-Apps/g03_d01/g03/l703.exe)
 Compute integral first derivatives, UseDBF=F.
 Integral derivatives from FoFDir, PRISM(SPDF).
 Symmetry not used in FoFDir.
 MinBra= 0 MaxBra= 2 Meth= 1.
 IRaf=       0 NMat=   1 IRICut=       1 DoRegI=T DoRafI=F ISym2E= 0 JSym2E=0.
 Leave Link  703 at Wed Jul  9 14:53:14 2008, MaxMem=  536870912 cpu:      39.3
 (Enter /usr/local/Chem-Apps/g03_d01/g03/l716.exe)
 Dipole        =-5.48281025D+00-1.05411118D+00-6.43077896D-01
 ***** Axes restored to original set *****
 -------------------------------------------------------------------
 Center     Atomic                   Forces (Hartrees/Bohr)
 Number     Number              X              Y              Z
 -------------------------------------------------------------------
    1          6          -0.000009223   -0.000095291   -0.000034286
    2          1           0.000061255   -0.000008628    0.000039393
    3          1           0.000005845    0.000123197    0.000043783
    4          6          -0.000016884   -0.000000403    0.000062748
    5          1          -0.000011727    0.000004718    0.000003437
    6          6           0.000005237   -0.000005568   -0.000023526
    7          1           0.000004653    0.000004969   -0.000004437
    8          1          -0.000002749    0.000008185   -0.000000335
    9         15          -0.000114911   -0.000010887    0.000000688
   10          8          -0.000022123   -0.000028124    0.000014014
   11          8           0.000055818   -0.000034365   -0.000010199
   12          8           0.000000318    0.000058202    0.000034863
   13          1          -0.000019592    0.000043337   -0.000039562
   14          1           0.000001850   -0.000002499    0.000021094
   15          7           0.000062234   -0.000056843   -0.000107672
 -------------------------------------------------------------------
 Cartesian Forces:  Max     0.000123197 RMS     0.000043405
 Leave Link  716 at Wed Jul  9 14:53:14 2008, MaxMem=  536870912 cpu:       0.0
 (Enter /usr/local/Chem-Apps/g03_d01/g03/l103.exe)

 GradGradGradGradGradGradGradGradGradGradGradGradGradGradGradGradGradGrad
 Berny optimization.
 Internal  Forces:  Max     0.000239241 RMS     0.000049309
 Search for a local minimum.
 Step number   1 out of a maximum of  76
 All quantities printed in internal units (Hartrees-Bohrs-Radians)
 Swaping is turned off.
 Second derivative matrix not updated -- first step.
     Eigenvalues ---    0.00230   0.00604   0.00737   0.01647   0.02924
     Eigenvalues ---    0.02924   0.03413   0.04247   0.04819   0.05698
     Eigenvalues ---    0.08656   0.09335   0.11790   0.11907   0.12420
     Eigenvalues ---    0.12888   0.13092   0.16000   0.16000   0.16000
     Eigenvalues ---    0.21924   0.22000   0.22010   0.25000   0.25000
     Eigenvalues ---    0.25000   0.32150   0.32771   0.33117   0.33694
     Eigenvalues ---    0.34170   0.34319   0.34374   0.42840   0.42884
     Eigenvalues ---    0.57909   0.65942   0.66077   0.663911000.00000
     Eigenvalues --- 1000.000001000.000001000.000001000.000001000.00000
     Eigenvalues --- 1000.000001000.000001000.000001000.000001000.00000
     Eigenvalues --- 1000.000001000.000001000.000001000.000001000.00000
     Eigenvalues --- 1000.000001000.000001000.000001000.000001000.00000
     Eigenvalues --- 1000.000001000.000001000.000001000.000001000.00000
     Eigenvalues --- 1000.00000
 Angle between quadratic step and forces=  75.75 degrees.
 Linear search not attempted -- option 19 set.
 Iteration  1 RMS(Cart)=  0.00479093 RMS(Int)=  0.00001279
 Iteration  2 RMS(Cart)=  0.00001395 RMS(Int)=  0.00000008
 Iteration  3 RMS(Cart)=  0.00000000 RMS(Int)=  0.00000008
 Variable       Old X    -DE/DX   Delta X   Delta X   Delta X     New X
                                 (Linear)    (Quad)   (Total)
    R1        2.09456   0.00005   0.00000   0.00017   0.00017   2.09473
    R2        2.08847   0.00012   0.00000   0.00036   0.00036   2.08883
    R3        2.83870   0.00001   0.00000   0.00003   0.00003   2.83873
    R4        2.80095   0.00003   0.00000   0.00009   0.00009   2.80104
    R5        2.07850   0.00000   0.00000  -0.00001  -0.00001   2.07850
    R6        2.52635   0.00001   0.00000   0.00001   0.00001   2.52636
    R7        2.07044   0.00001   0.00000   0.00002   0.00002   2.07045
    R8        2.06703   0.00000   0.00000   0.00000   0.00000   2.06703
    R9        2.90132  -0.00003   0.00000  -0.00004  -0.00004   2.90128
   R10        2.89914   0.00005   0.00000   0.00007   0.00007   2.89922
   R11        2.90227   0.00001   0.00000   0.00002   0.00002   2.90229
   R12        3.88798  -0.00007   0.00000  -0.00052  -0.00052   3.88745
   R13        1.94513   0.00005   0.00000   0.00012   0.00012   1.94525
   R14        1.94567   0.00000   0.00000   0.00001   0.00001   1.94568
    A1        1.88268  -0.00001   0.00000  -0.00035  -0.00035   1.88232
    A2        1.93707   0.00002   0.00000   0.00020   0.00020   1.93727
    A3        1.84454  -0.00006   0.00000  -0.00043  -0.00043   1.84411
    A4        1.94971  -0.00003   0.00000  -0.00005  -0.00005   1.94965
    A5        1.86603   0.00000   0.00000   0.00015   0.00015   1.86618
    A6        1.97783   0.00007   0.00000   0.00042   0.00042   1.97825
    A7        2.02350   0.00003   0.00000   0.00015   0.00015   2.02366
    A8        2.17363  -0.00003   0.00000  -0.00016  -0.00016   2.17348
    A9        2.08602   0.00001   0.00000   0.00001   0.00001   2.08603
   A10        2.11699  -0.00001   0.00000  -0.00006  -0.00006   2.11693
   A11        2.12150   0.00001   0.00000   0.00009   0.00009   2.12158
   A12        2.04467   0.00000   0.00000  -0.00002  -0.00002   2.04465
   A13        2.06365   0.00001   0.00000   0.00014   0.00014   2.06378
   A14        2.06114  -0.00004   0.00000  -0.00038  -0.00038   2.06075
   A15        1.71951  -0.00007   0.00000  -0.00031  -0.00031   1.71920
   A16        2.06352  -0.00001   0.00000   0.00009   0.00009   2.06360
   A17        1.69355   0.00010   0.00000   0.00047   0.00047   1.69401
   A18        1.70780   0.00005   0.00000   0.00019   0.00019   1.70799
   A19        1.99566  -0.00024   0.00000  -0.00125  -0.00125   1.99441
   A20        1.93080   0.00008   0.00000   0.00045   0.00045   1.93125
   A21        1.93234   0.00004   0.00000  -0.00010  -0.00010   1.93224
   A22        1.88638   0.00007   0.00000   0.00036   0.00036   1.88674
   A23        1.85962   0.00008   0.00000   0.00018   0.00018   1.85980
   A24        1.85211  -0.00002   0.00000   0.00047   0.00047   1.85257
    D1       -1.05076   0.00000   0.00000   0.00129   0.00129  -1.04948
    D2        2.08300   0.00002   0.00000   0.00203   0.00203   2.08502
    D3        3.13055   0.00002   0.00000   0.00164   0.00164   3.13218
    D4       -0.01888   0.00004   0.00000   0.00238   0.00238  -0.01650
    D5        1.02144  -0.00001   0.00000   0.00117   0.00117   1.02261
    D6       -2.12798   0.00000   0.00000   0.00191   0.00191  -2.12607
    D7       -0.98961   0.00002   0.00000  -0.00034  -0.00034  -0.98995
    D8       -3.12407   0.00004   0.00000  -0.00025  -0.00025  -3.12432
    D9        1.11092  -0.00001   0.00000  -0.00105  -0.00105   1.10987
   D10        1.01300  -0.00002   0.00000  -0.00087  -0.00087   1.01213
   D11       -1.12146   0.00000   0.00000  -0.00078  -0.00078  -1.12224
   D12        3.11353  -0.00005   0.00000  -0.00158  -0.00158   3.11195
   D13       -3.11446   0.00000   0.00000  -0.00055  -0.00055  -3.11500
   D14        1.03427   0.00001   0.00000  -0.00046  -0.00046   1.03381
   D15       -1.01392  -0.00004   0.00000  -0.00126  -0.00126  -1.01518
   D16        0.00735   0.00000   0.00000  -0.00026  -0.00026   0.00708
   D17       -3.12611  -0.00001   0.00000  -0.00043  -0.00043  -3.12654
   D18        3.14085   0.00001   0.00000   0.00050   0.00050   3.14135
   D19        0.00739   0.00000   0.00000   0.00034   0.00034   0.00773
   D20       -1.01164  -0.00001   0.00000  -0.00908  -0.00908  -1.02072
   D21        1.14686  -0.00002   0.00000  -0.00909  -0.00909   1.13777
   D22        3.13099   0.00003   0.00000  -0.00829  -0.00829   3.12270
   D23       -3.10665  -0.00003   0.00000  -0.00927  -0.00927  -3.11591
   D24       -0.94815  -0.00004   0.00000  -0.00927  -0.00927  -0.95742
   D25        1.03598   0.00001   0.00000  -0.00847  -0.00847   1.02751
   D26        1.08431  -0.00006   0.00000  -0.00951  -0.00951   1.07480
   D27       -3.04038  -0.00007   0.00000  -0.00951  -0.00951  -3.04989
   D28       -1.05625  -0.00002   0.00000  -0.00871  -0.00871  -1.06496
         Item               Value     Threshold  Converged?
 Maximum Force            0.000239     0.000450     YES
 RMS     Force            0.000049     0.000300     YES
 Maximum Displacement     0.017294     0.001800     NO 
 RMS     Displacement     0.004791     0.001200     NO 
 Predicted change in Energy=-1.363491D-06
 GradGradGradGradGradGradGradGradGradGradGradGradGradGradGradGradGradGrad

 Leave Link  103 at Wed Jul  9 14:53:14 2008, MaxMem=  536870912 cpu:       0.3
 (Enter /usr/local/Chem-Apps/g03_d01/g03/l202.exe)
                          Input orientation:                          
 ---------------------------------------------------------------------
 Center     Atomic     Atomic              Coordinates (Angstroms)
 Number     Number      Type              X           Y           Z
 ---------------------------------------------------------------------
    1          6             0       -1.405784    0.046067    0.435305
    2          1             0       -1.120468   -0.245501    1.465993
    3          1             0       -1.330596    1.146389    0.361376
    4          6             0       -2.787326   -0.440115    0.101314
    5          1             0       -2.937812   -1.528825    0.144092
    6          6             0       -3.811582    0.354086   -0.226438
    7          1             0       -3.694232    1.442218   -0.277600
    8          1             0       -4.802881   -0.051978   -0.447563
    9         15             0        1.553934    0.090382    0.018401
   10          8             0        1.352215    1.604919   -0.131967
   11          8             0        2.271019   -0.662164   -1.109974
   12          8             0        1.621266   -0.492377    1.437772
   13          1             0       -0.538264   -0.276665   -1.429160
   14          1             0       -0.355199   -1.546878   -0.398538
   15          7             0       -0.355583   -0.518336   -0.445366
 ---------------------------------------------------------------------
                    Distance matrix (angstroms):
                    1          2          3          4          5
     1  C    0.000000
     2  H    1.108483   0.000000
     3  H    1.105362   1.789326   0.000000
     4  C    1.502193   2.163017   2.169491   0.000000
     5  H    2.216348   2.587872   3.128438   1.099893   0.000000
     6  C    2.514089   3.235108   2.669936   1.336890   2.108582
     7  H    2.773890   3.537340   2.466289   2.123495   3.094687
     8  H    3.511316   4.154433   3.761280   2.124706   2.451451
     9  P    2.989265   3.059537   3.090840   4.374339   4.776338
    10  O    3.218443   3.477311   2.766064   4.623028   5.319858
    11  O    4.050723   4.279182   4.290380   5.206091   5.427311
    12  O    3.233867   2.752971   3.543680   4.607010   4.851085
    13  H    2.081581   2.953277   2.420515   2.725316   3.130632
    14  H    2.082426   2.399103   2.963537   2.718459   2.639065
    15  N    1.482246   2.076723   2.091121   2.493662   2.834864
                    6          7          8          9         10
     6  C    0.000000
     7  H    1.095637   0.000000
     8  H    1.093827   1.868317   0.000000
     9  P    5.377569   5.427552   6.375460   0.000000
    10  O    5.313972   5.051169   6.382015   1.535293   0.000000
    11  O    6.229882   6.380085   7.131001   1.534199   2.634457
    12  O    5.744731   5.910980   6.709553   1.535823   2.633462
    13  H    3.543867   3.773696   4.381892   2.570496   2.965970
    14  H    3.948400   4.483130   4.692441   2.549362   3.594460
    15  N    3.571130   3.875370   4.471683   2.057152   2.742809
                   11         12         13         14         15
    11  O    0.000000
    12  O    2.634770   0.000000
    13  H    2.853517   3.595747   0.000000
    14  H    2.861098   2.896622   1.645945   0.000000
    15  N    2.713196   2.730351   1.029383   1.029607   0.000000
 Stoichiometry    C3H7NO3P(1-)
 Framework group  C1[X(C3H7NO3P)]
 Deg. of freedom    39
 Full point group                 C1
 Largest Abelian subgroup         C1      NOp   1
 Largest concise Abelian subgroup C1      NOp   1
                         Standard orientation:                         
 ---------------------------------------------------------------------
 Center     Atomic     Atomic              Coordinates (Angstroms)
 Number     Number      Type              X           Y           Z
 ---------------------------------------------------------------------
    1          6             0       -1.405414    0.046442    0.434907
    2          1             0       -1.120394   -0.244291    1.465912
    3          1             0       -1.329896    1.146676    0.360015
    4          6             0       -2.787027   -0.439642    0.101063
    5          1             0       -2.937833   -1.528270    0.144778
    6          6             0       -3.810987    0.354560   -0.227607
    7          1             0       -3.693316    1.442613   -0.279712
    8          1             0       -4.802357   -0.051416   -0.448575
    9         15             0        1.554402    0.089539    0.018575
   10          8             0        1.353147    1.604000   -0.133182
   11          8             0        2.271504   -0.664214   -1.108983
   12          8             0        1.621275   -0.491976    1.438476
   13          1             0       -0.537602   -0.278196   -1.429092
   14          1             0       -0.355113   -1.547544   -0.397303
   15          7             0       -0.355194   -0.519044   -0.445045
 ---------------------------------------------------------------------
 Rotational constants (GHZ):      3.8305868      0.7989944      0.7930944
 Leave Link  202 at Wed Jul  9 14:53:14 2008, MaxMem=  536870912 cpu:       0.3
 (Enter /usr/local/Chem-Apps/g03_d01/g03/l301.exe)
 Standard basis: CC-pVDZ (5D, 7F)
 There are   151 symmetry adapted basis functions of A   symmetry.
 Integral buffers will be    131072 words long.
 Raffenetti 2 integral format.
 Two-electron integral symmetry is turned on.
   151 basis functions,   353 primitive gaussians,   159 cartesian basis functions
    36 alpha electrons       36 beta electrons
       nuclear repulsion energy       464.0878220922 Hartrees.
 IExCor= 402 DFT=T Ex=B+HF Corr=LYP ExCW=0 ScaHFX=  0.200000
 ScaDFX=  0.800000  0.720000  1.000000  0.810000
 IRadAn=      5 IRanWt=     -1 IRanGd=            0 ICorTp=0
 NAtoms=   15 NActive=   15 NUniq=   15 SFac= 7.50D-01 NAtFMM=   80 NAOKFM=F Big=F
 ------------------------------------------------------------------------------
 United Atom Topological Model (UAKS parameters set).
  Nord Group  Hybr  Charge Alpha Radius          Bonded to
    1   CH2   sp3  -0.12   1.20  1.642   C4   [s]  N15  [s]
    4   CH    sp2  -0.12   1.20  1.823   C1   [s]  C6   [d]
    6   CH2   sp2  -0.12   1.20  2.002   C4   [d]
    9   P     sp3  -0.12   1.20  1.942   O10  [d]  O11  [d]  O12  [d]  N15  [s]
   10   O     sp2  -0.12   1.20  1.597   P9   [d]
   11   O     sp2  -0.12   1.20  1.597   P9   [d]
   12   O     sp2  -0.12   1.20  1.597   P9   [d]
   15   NH2   sp3  -0.12   1.20  1.746   C1   [s]  P9   [s]
 ------------------------------------------------------------------------------
 Polarizable Continuum Model (PCM)
 =================================
 Model                : PCM.
 Atomic radii         : UAKS (United Atom Topological Model).
 Polarization charges : Total charges.
 Charge compensation  : None.
 Solution method      : Matrix inversion.
 Cavity               : GePol (RMin=0.200 OFac=0.890).
                        Default sphere list used, NSphG=    8.
                        Tesserae with average area of 0.050 Ang**2.
 1st derivatives      : Analytical V*U(x)*V algorithm (CHGder, D1EAlg=0).
                        Cavity 1st derivative terms included.
 Solvent              : Water, Eps     =  78.390000
                               Eps(inf)=   1.776000
                               RSolv   =   1.385000 Ang.
 ------------------------------------------------------------------------------
 GePol: Number of tesserae being generated         =    4485
 GePol: Average area of tesserae                   =       0.04 Ang**2
 GePol: Minimum area of tessera                    =   0.10D-02 Ang**2
 GePol: Maximum area of tessera                    =    0.07898 Ang**2
 GePol: Number of small tesserae                   =       0
 GePol: Fraction of small tesserae (<1% of avg)    =       0.00%
 GePol: Total count of vertices                    =   14652
 GePol: Maximum number of vertices in a tessera    =       6
 GePol: Cavity surface area                        =    181.074 Ang**2
 GePol: Cavity volume                              =    179.187 Ang**3
 GePol: Maximum number of non-zero 1st derivatives =    1362
 Leave Link  301 at Wed Jul  9 14:53:15 2008, MaxMem=  536870912 cpu:       0.9
 (Enter /usr/local/Chem-Apps/g03_d01/g03/l302.exe)
 NPDir=0 NMtPBC=     1 NCelOv=     1 NCel=       1 NClECP=     1 NCelD=      1
         NCelK=      1 NCelE2=     1 NClLst=     1 CellRange=     0.0.
 One-electron integrals computed using PRISM.
 NBasis=   151 RedAO= T  NBF=   151
 NBsUse=   151 1.00D-06 NBFU=   151
 Precomputing XC quadrature grid using
 IXCGrd= 2 IRadAn=           5 IRanWt=          -1 IRanGd=           0.
 NRdTot=    1245 NPtTot=      333362 NUsed=      342138 NTot=      342170
 NSgBfM=   159   159   159   159.
 Leave Link  302 at Wed Jul  9 14:53:15 2008, MaxMem=  536870912 cpu:       3.5
 (Enter /usr/local/Chem-Apps/g03_d01/g03/l303.exe)
 DipDrv:  MaxL=1.
 Leave Link  303 at Wed Jul  9 14:53:16 2008, MaxMem=  536870912 cpu:       0.2
 (Enter /usr/local/Chem-Apps/g03_d01/g03/l401.exe)
 Initial guess read from the read-write file:
 Guess basis will be translated and rotated to current coordinates.
 Initial guess orbital symmetries:
       Occupied  (A) (A) (A) (A) (A) (A) (A) (A) (A) (A) (A) (A)
                 (A) (A) (A) (A) (A) (A) (A) (A) (A) (A) (A) (A)
                 (A) (A) (A) (A) (A) (A) (A) (A) (A) (A) (A) (A)
       Virtual   (A) (A) (A) (A) (A) (A) (A) (A) (A) (A) (A) (A)
                 (A) (A) (A) (A) (A) (A) (A) (A) (A) (A) (A) (A)
                 (A) (A) (A) (A) (A) (A) (A) (A) (A) (A) (A) (A)
                 (A) (A) (A) (A) (A) (A) (A) (A) (A) (A) (A) (A)
                 (A) (A) (A) (A) (A) (A) (A) (A) (A) (A) (A) (A)
                 (A) (A) (A) (A) (A) (A) (A) (A) (A) (A) (A) (A)
                 (A) (A) (A) (A) (A) (A) (A) (A) (A) (A) (A) (A)
                 (A) (A) (A) (A) (A) (A) (A) (A) (A) (A) (A) (A)
                 (A) (A) (A) (A) (A) (A) (A) (A) (A) (A) (A) (A)
                 (A) (A) (A) (A) (A) (A) (A)
 The electronic state of the initial guess is 1-A.
 Leave Link  401 at Wed Jul  9 14:53:16 2008, MaxMem=  536870912 cpu:       0.8
 (Enter /usr/local/Chem-Apps/g03_d01/g03/l502.exe)
 Closed shell SCF:
 Requested convergence on RMS density matrix=1.00D-08 within 128 cycles.
 Requested convergence on MAX density matrix=1.00D-06.
 Requested convergence on             energy=1.00D-06.
 No special actions if energy rises.
 Using DIIS extrapolation, IDIIS=  1040.
 Integral symmetry usage will be decided dynamically.
       342137 words used for storage of precomputed grid.
 Keep R1 integrals in memory in canonical form, NReq=   102412540.
 IEnd=    450127 IEndB=    450127 NGot= 536870912 MDV= 455557292
 LenX= 455557292
 Symmetry not used in FoFDir.
 MinBra= 0 MaxBra= 2 Meth= 1.
 IRaf=       0 NMat=   1 IRICut=       1 DoRegI=T DoRafI=F ISym2E= 0 JSym2E=0.

 Cycle   1  Pass 1  IDiag  1:
 E= -740.520712528166    
 DIIS: error= 4.94D-04 at cycle   1 NSaved=   1.
 NSaved= 1 IEnMin= 1 EnMin= -740.520712528166     IErMin= 1 ErrMin= 4.94D-04
 ErrMax= 4.94D-04 EMaxC= 1.00D-01 BMatC= 4.14D-05 BMatP= 4.14D-05
 IDIUse=3 WtCom= 9.95D-01 WtEn= 4.94D-03
 Coeff-Com:  0.100D+01
 Coeff-En:   0.100D+01
 Coeff:      0.100D+01
 Gap=     0.190 Goal=   None    Shift=    0.000
 RMSDP=7.67D-05 MaxDP=1.36D-03              OVMax= 2.74D-03

 Cycle   2  Pass 1  IDiag  1:
 E= -740.520789247818     Delta-E=       -0.000076719652 Rises=F Damp=F
 DIIS: error= 6.01D-05 at cycle   2 NSaved=   2.
 NSaved= 2 IEnMin= 2 EnMin= -740.520789247818     IErMin= 2 ErrMin= 6.01D-05
 ErrMax= 6.01D-05 EMaxC= 1.00D-01 BMatC= 5.31D-07 BMatP= 4.14D-05
 IDIUse=1 WtCom= 1.00D+00 WtEn= 0.00D+00
 Coeff-Com: -0.840D-01 0.108D+01
 Coeff:     -0.840D-01 0.108D+01
 Gap=     0.190 Goal=   None    Shift=    0.000
 RMSDP=7.32D-06 MaxDP=1.39D-04 DE=-7.67D-05 OVMax= 3.25D-04

 Cycle   3  Pass 1  IDiag  1:
 E= -740.520789734250     Delta-E=       -0.000000486432 Rises=F Damp=F
 DIIS: error= 4.68D-05 at cycle   3 NSaved=   3.
 NSaved= 3 IEnMin= 3 EnMin= -740.520789734250     IErMin= 3 ErrMin= 4.68D-05
 ErrMax= 4.68D-05 EMaxC= 1.00D-01 BMatC= 2.70D-07 BMatP= 5.31D-07
 IDIUse=1 WtCom= 1.00D+00 WtEn= 0.00D+00
 Coeff-Com: -0.432D-01 0.535D+00 0.508D+00
 Coeff:     -0.432D-01 0.535D+00 0.508D+00
 Gap=     0.190 Goal=   None    Shift=    0.000
 RMSDP=3.74D-06 MaxDP=1.21D-04 DE=-4.86D-07 OVMax= 1.63D-04

 Cycle   4  Pass 1  IDiag  1:
 E= -740.520789887416     Delta-E=       -0.000000153166 Rises=F Damp=F
 DIIS: error= 2.50D-05 at cycle   4 NSaved=   4.
 NSaved= 4 IEnMin= 4 EnMin= -740.520789887416     IErMin= 4 ErrMin= 2.50D-05
 ErrMax= 2.50D-05 EMaxC= 1.00D-01 BMatC= 7.15D-08 BMatP= 2.70D-07
 IDIUse=1 WtCom= 1.00D+00 WtEn= 0.00D+00
 Coeff-Com: -0.961D-02 0.130D+00 0.340D+00 0.540D+00
 Coeff:     -0.961D-02 0.130D+00 0.340D+00 0.540D+00
 Gap=     0.190 Goal=   None    Shift=    0.000
 RMSDP=1.37D-06 MaxDP=4.43D-05 DE=-1.53D-07 OVMax= 5.49D-05

 Cycle   5  Pass 1  IDiag  1:
 E= -740.520789941612     Delta-E=       -0.000000054196 Rises=F Damp=F
 DIIS: error= 1.27D-06 at cycle   5 NSaved=   5.
 NSaved= 5 IEnMin= 5 EnMin= -740.520789941612     IErMin= 5 ErrMin= 1.27D-06
 ErrMax= 1.27D-06 EMaxC= 1.00D-01 BMatC= 6.32D-10 BMatP= 7.15D-08
 IDIUse=1 WtCom= 1.00D+00 WtEn= 0.00D+00
 Coeff-Com: -0.216D-02 0.281D-01 0.112D+00 0.201D+00 0.661D+00
 Coeff:     -0.216D-02 0.281D-01 0.112D+00 0.201D+00 0.661D+00
 Gap=     0.190 Goal=   None    Shift=    0.000
 RMSDP=1.84D-07 MaxDP=6.55D-06 DE=-5.42D-08 OVMax= 7.40D-06

 Cycle   6  Pass 1  IDiag  1:
 E= -740.520789942037     Delta-E=       -0.000000000425 Rises=F Damp=F
 DIIS: error= 7.29D-07 at cycle   6 NSaved=   6.
 NSaved= 6 IEnMin= 6 EnMin= -740.520789942037     IErMin= 6 ErrMin= 7.29D-07
 ErrMax= 7.29D-07 EMaxC= 1.00D-01 BMatC= 1.83D-10 BMatP= 6.32D-10
 IDIUse=1 WtCom= 1.00D+00 WtEn= 0.00D+00
 Coeff-Com:  0.339D-03-0.597D-02 0.115D-01 0.332D-01 0.376D+00 0.585D+00
 Coeff:      0.339D-03-0.597D-02 0.115D-01 0.332D-01 0.376D+00 0.585D+00
 Gap=     0.190 Goal=   None    Shift=    0.000
 RMSDP=7.57D-08 MaxDP=2.40D-06 DE=-4.25D-10 OVMax= 4.88D-06

 Cycle   7  Pass 1  IDiag  1:
 E= -740.520789942196     Delta-E=       -0.000000000158 Rises=F Damp=F
 DIIS: error= 2.67D-07 at cycle   7 NSaved=   7.
 NSaved= 7 IEnMin= 7 EnMin= -740.520789942196     IErMin= 7 ErrMin= 2.67D-07
 ErrMax= 2.67D-07 EMaxC= 1.00D-01 BMatC= 1.31D-11 BMatP= 1.83D-10
 IDIUse=1 WtCom= 1.00D+00 WtEn= 0.00D+00
 Coeff-Com:  0.294D-03-0.481D-02 0.268D-02 0.125D-01 0.196D+00 0.344D+00
 Coeff-Com:  0.449D+00
 Coeff:      0.294D-03-0.481D-02 0.268D-02 0.125D-01 0.196D+00 0.344D+00
 Coeff:      0.449D+00
 Gap=     0.190 Goal=   None    Shift=    0.000
 RMSDP=1.98D-08 MaxDP=8.31D-07 DE=-1.58D-10 OVMax= 1.49D-06

 Cycle   8  Pass 1  IDiag  1:
 E= -740.520789942208     Delta-E=       -0.000000000013 Rises=F Damp=F
 DIIS: error= 2.68D-08 at cycle   8 NSaved=   8.
 NSaved= 8 IEnMin= 8 EnMin= -740.520789942208     IErMin= 8 ErrMin= 2.68D-08
 ErrMax= 2.68D-08 EMaxC= 1.00D-01 BMatC= 1.75D-13 BMatP= 1.31D-11
 IDIUse=1 WtCom= 1.00D+00 WtEn= 0.00D+00
 Coeff-Com:  0.239D-04-0.348D-03-0.625D-04 0.296D-03 0.280D-03 0.413D-02
 Coeff-Com:  0.848D-01 0.911D+00
 Coeff:      0.239D-04-0.348D-03-0.625D-04 0.296D-03 0.280D-03 0.413D-02
 Coeff:      0.848D-01 0.911D+00
 Gap=     0.190 Goal=   None    Shift=    0.000
 RMSDP=5.20D-09 MaxDP=1.51D-07 DE=-1.25D-11 OVMax= 2.78D-07

 Error on total polarization charges =  0.01117
 SCF Done:  E(RB+HF-LYP) =  -740.520789942     A.U. after    8 cycles
             Convg  =    0.5198D-08             -V/T =  2.0049
             S**2   =   0.0000
 KE= 7.368780177169D+02 PE=-2.690438092732D+03 EE= 7.489514629803D+02
 --------------------------------------------------------------------
 Variational PCM results
 =======================
 <psi(f)|   H    |psi(f)>                     (a.u.) =    -740.389560
 <psi(f)|H+V(f)/2|psi(f)>                     (a.u.) =    -740.520790
 Total free energy in solution:
  with all non electrostatic terms            (a.u.) =    -740.515869
 --------------------------------------------------------------------
 (Polarized solute)-Solvent               (kcal/mol) =     -82.35
 --------------------------------------------------------------------
 Cavitation energy                        (kcal/mol) =      18.56
 Dispersion energy                        (kcal/mol) =     -19.44
 Repulsion energy                         (kcal/mol) =       3.98
 Total non electrostatic                  (kcal/mol) =       3.09
 --------------------------------------------------------------------
 Partition over spheres:
 Sphere  on Atom  Surface  Charge   GEl     GCav    GDR
    1      C1       7.56  -0.082    1.85    1.62   -0.88
    2      C4      13.52  -0.027    0.18    1.81   -1.59
    3      C6      48.12   0.011   -0.62    4.28   -3.72
    4      P9       7.37   0.071   -5.14    1.24   -0.48
    5      O10     20.28   0.328  -22.48    2.50   -2.31
    6      O11     21.64   0.343  -23.24    2.49   -2.37
    7      O12     20.32   0.329  -22.39    2.50   -2.32
    8      N15     13.38  -0.188    3.50    2.11   -1.80
 Added spheres:    28.89   0.189  -13.99    0.00    0.00
 --------------------------------------------------------------------
 After PCM corrections, the SCF energy is  -740.520789942     a.u.
 --------------------------------------------------------------------
 Leave Link  502 at Wed Jul  9 15:02:55 2008, MaxMem=  536870912 cpu:     784.0
 (Enter /usr/local/Chem-Apps/g03_d01/g03/l701.exe)
 Compute integral first derivatives.
 ... and contract with generalized density number  0.
 D1PCM: PCM CHGder 1st derivatives, ID1Alg=0 FixD1E=F DoIter=F I1PDM=0.
 Leave Link  701 at Wed Jul  9 15:03:12 2008, MaxMem=  536870912 cpu:      33.7
 (Enter /usr/local/Chem-Apps/g03_d01/g03/l702.exe)
 L702 exits ... SP integral derivatives will be done elsewhere.
 Leave Link  702 at Wed Jul  9 15:03:13 2008, MaxMem=  536870912 cpu:       0.0
 (Enter /usr/local/Chem-Apps/g03_d01/g03/l703.exe)
 Compute integral first derivatives, UseDBF=F.
 Integral derivatives from FoFDir, PRISM(SPDF).
 Symmetry not used in FoFDir.
 MinBra= 0 MaxBra= 2 Meth= 1.
 IRaf=       0 NMat=   1 IRICut=       1 DoRegI=T DoRafI=F ISym2E= 0 JSym2E=0.
 Leave Link  703 at Wed Jul  9 15:03:18 2008, MaxMem=  536870912 cpu:      39.3
 (Enter /usr/local/Chem-Apps/g03_d01/g03/l716.exe)
 Dipole        =-5.48094590D+00-1.05612290D+00-6.47017391D-01
 ***** Axes restored to original set *****
 -------------------------------------------------------------------
 Center     Atomic                   Forces (Hartrees/Bohr)
 Number     Number              X              Y              Z
 -------------------------------------------------------------------
    1          6           0.000001812   -0.000023914    0.000100386
    2          1           0.000019887    0.000020882   -0.000038278
    3          1           0.000000075    0.000025339    0.000002444
    4          6           0.000021395    0.000009667   -0.000025009
    5          1          -0.000008172    0.000006291    0.000019576
    6          6          -0.000003994   -0.000007009   -0.000020444
    7          1           0.000000830    0.000001219    0.000004599
    8          1          -0.000003018    0.000003543    0.000006406
    9         15          -0.000064467    0.000005615    0.000024733
   10          8          -0.000012286   -0.000004542   -0.000036998
   11          8           0.000017612   -0.000008550    0.000010530
   12          8           0.000022180    0.000001283    0.000021548
   13          1          -0.000032937    0.000027715    0.000017658
   14          1          -0.000009796   -0.000000616   -0.000029772
   15          7           0.000050879   -0.000056922   -0.000057378
 -------------------------------------------------------------------
 Cartesian Forces:  Max     0.000100386 RMS     0.000028242
 Leave Link  716 at Wed Jul  9 15:03:18 2008, MaxMem=  536870912 cpu:       0.0
 (Enter /usr/local/Chem-Apps/g03_d01/g03/l103.exe)

 GradGradGradGradGradGradGradGradGradGradGradGradGradGradGradGradGradGrad
 Berny optimization.
 Use GDIIS/GDPIS optimizer.
 Internal  Forces:  Max     0.000109031 RMS     0.000023731
 Search for a local minimum.
 Step number   2 out of a maximum of  76
 All quantities printed in internal units (Hartrees-Bohrs-Radians)
 Swaping is turned off.
 Update second derivatives using D2CorX and points  1  2
 Trust test= 1.32D+00 RLast= 2.77D-02 DXMaxT set to 3.00D-01
     Eigenvalues ---    0.00103   0.00607   0.00713   0.01668   0.02924
     Eigenvalues ---    0.02930   0.03535   0.04304   0.04879   0.05744
     Eigenvalues ---    0.08643   0.09314   0.11893   0.12149   0.12554
     Eigenvalues ---    0.12894   0.13058   0.15992   0.16000   0.16000
     Eigenvalues ---    0.20495   0.22001   0.22753   0.24701   0.25000
     Eigenvalues ---    0.25116   0.32156   0.32891   0.33687   0.33808
     Eigenvalues ---    0.34172   0.34307   0.34374   0.42841   0.43051
     Eigenvalues ---    0.57908   0.65938   0.66107   0.664881000.00000
     Eigenvalues --- 1000.000001000.000001000.000001000.000001000.00000
     Eigenvalues --- 1000.000001000.000001000.000001000.000001000.00000
     Eigenvalues --- 1000.000001000.000001000.000001000.000001000.00000
     Eigenvalues --- 1000.000001000.000001000.000001000.000001000.00000
     Eigenvalues --- 1000.000001000.000001000.000001000.000001000.00000
     Eigenvalues --- 1000.00000
 DIIS coeff's:      2.06574     -1.06574
 Cosine:  1.000 >  0.500
 Length:  1.000
 GDIIS step was calculated using  2 of the last  2 vectors.
 Iteration  1 RMS(Cart)=  0.00752142 RMS(Int)=  0.00003165
 Iteration  2 RMS(Cart)=  0.00003380 RMS(Int)=  0.00000017
 Iteration  3 RMS(Cart)=  0.00000000 RMS(Int)=  0.00000017
 Variable       Old X    -DE/DX   Delta X   Delta X   Delta X     New X
                                  (DIIS)     (GDIIS)  (Total)
    R1        2.09473  -0.00004   0.00018  -0.00034  -0.00017   2.09456
    R2        2.08883   0.00002   0.00038  -0.00010   0.00028   2.08911
    R3        2.83873   0.00000   0.00003  -0.00005  -0.00002   2.83871
    R4        2.80104   0.00002   0.00010   0.00003   0.00013   2.80117
    R5        2.07850   0.00000  -0.00001  -0.00002  -0.00003   2.07847
    R6        2.52636   0.00001   0.00001   0.00001   0.00003   2.52638
    R7        2.07045   0.00000   0.00002  -0.00001   0.00001   2.07046
    R8        2.06703   0.00000   0.00000   0.00000   0.00000   2.06704
    R9        2.90128   0.00000  -0.00004   0.00003  -0.00001   2.90127
   R10        2.89922   0.00000   0.00008  -0.00004   0.00003   2.89925
   R11        2.90229   0.00002   0.00002   0.00006   0.00008   2.90236
   R12        3.88745  -0.00003  -0.00056  -0.00009  -0.00064   3.88681
   R13        1.94525   0.00000   0.00013  -0.00011   0.00002   1.94527
   R14        1.94568   0.00000   0.00001  -0.00001  -0.00001   1.94567
    A1        1.88232  -0.00001  -0.00038   0.00013  -0.00025   1.88208
    A2        1.93727   0.00003   0.00021   0.00056   0.00077   1.93804
    A3        1.84411  -0.00001  -0.00045   0.00027  -0.00018   1.84393
    A4        1.94965   0.00000  -0.00006  -0.00015  -0.00021   1.94944
    A5        1.86618   0.00001   0.00016  -0.00028  -0.00012   1.86606
    A6        1.97825  -0.00002   0.00045  -0.00050  -0.00005   1.97821
    A7        2.02366   0.00000   0.00016  -0.00006   0.00010   2.02376
    A8        2.17348   0.00000  -0.00017   0.00013  -0.00003   2.17344
    A9        2.08603  -0.00001   0.00001  -0.00007  -0.00007   2.08596
   A10        2.11693   0.00000  -0.00007  -0.00002  -0.00009   2.11684
   A11        2.12158   0.00001   0.00009   0.00001   0.00011   2.12169
   A12        2.04465   0.00000  -0.00003   0.00000  -0.00002   2.04462
   A13        2.06378  -0.00001   0.00015  -0.00027  -0.00012   2.06366
   A14        2.06075   0.00001  -0.00041   0.00043   0.00002   2.06078
   A15        1.71920  -0.00006  -0.00033  -0.00027  -0.00060   1.71861
   A16        2.06360  -0.00002   0.00009  -0.00023  -0.00014   2.06346
   A17        1.69401   0.00005   0.00050   0.00003   0.00053   1.69454
   A18        1.70799   0.00006   0.00020   0.00039   0.00059   1.70858
   A19        1.99441  -0.00011  -0.00133  -0.00023  -0.00156   1.99284
   A20        1.93125   0.00001   0.00048  -0.00075  -0.00026   1.93099
   A21        1.93224   0.00003  -0.00010   0.00050   0.00040   1.93263
   A22        1.88674   0.00005   0.00038   0.00004   0.00043   1.88717
   A23        1.85980   0.00005   0.00020   0.00062   0.00082   1.86062
   A24        1.85257  -0.00002   0.00050  -0.00015   0.00035   1.85292
    D1       -1.04948   0.00001   0.00137   0.00149   0.00286  -1.04662
    D2        2.08502   0.00001   0.00216   0.00064   0.00280   2.08782
    D3        3.13218   0.00000   0.00174   0.00105   0.00279   3.13497
    D4       -0.01650   0.00000   0.00253   0.00020   0.00273  -0.01377
    D5        1.02261   0.00001   0.00125   0.00189   0.00314   1.02575
    D6       -2.12607   0.00001   0.00203   0.00104   0.00307  -2.12300
    D7       -0.98995   0.00000  -0.00036  -0.00010  -0.00046  -0.99041
    D8       -3.12432   0.00001  -0.00027   0.00058   0.00032  -3.12400
    D9        1.10987   0.00001  -0.00112   0.00092  -0.00019   1.10968
   D10        1.01213   0.00000  -0.00092   0.00004  -0.00088   1.01125
   D11       -1.12224   0.00001  -0.00083   0.00073  -0.00010  -1.12234
   D12        3.11195   0.00000  -0.00168   0.00107  -0.00061   3.11134
   D13       -3.11500  -0.00002  -0.00059  -0.00068  -0.00126  -3.11627
   D14        1.03381  -0.00001  -0.00049   0.00001  -0.00048   1.03333
   D15       -1.01518  -0.00001  -0.00134   0.00035  -0.00100  -1.01618
   D16        0.00708   0.00000  -0.00028   0.00006  -0.00022   0.00686
   D17       -3.12654   0.00000  -0.00046   0.00071   0.00026  -3.12628
   D18        3.14135  -0.00001   0.00053  -0.00082  -0.00029   3.14106
   D19        0.00773   0.00000   0.00036  -0.00017   0.00019   0.00792
   D20       -1.02072  -0.00001  -0.00968  -0.00522  -0.01490  -1.03562
   D21        1.13777  -0.00004  -0.00968  -0.00631  -0.01599   1.12178
   D22        3.12270  -0.00001  -0.00883  -0.00616  -0.01499   3.10771
   D23       -3.11591   0.00000  -0.00988  -0.00488  -0.01476  -3.13068
   D24       -0.95742  -0.00003  -0.00988  -0.00598  -0.01586  -0.97328
   D25        1.02751   0.00000  -0.00903  -0.00583  -0.01486   1.01265
   D26        1.07480   0.00000  -0.01013  -0.00474  -0.01487   1.05993
   D27       -3.04989  -0.00003  -0.01014  -0.00583  -0.01597  -3.06586
   D28       -1.06496   0.00000  -0.00929  -0.00568  -0.01497  -1.07993
         Item               Value     Threshold  Converged?
 Maximum Force            0.000109     0.000450     YES
 RMS     Force            0.000024     0.000300     YES
 Maximum Displacement     0.027445     0.001800     NO 
 RMS     Displacement     0.007522     0.001200     NO 
 Predicted change in Energy=-1.237424D-06
 GradGradGradGradGradGradGradGradGradGradGradGradGradGradGradGradGradGrad

 Leave Link  103 at Wed Jul  9 15:03:18 2008, MaxMem=  536870912 cpu:       0.3
 (Enter /usr/local/Chem-Apps/g03_d01/g03/l202.exe)
                          Input orientation:                          
 ---------------------------------------------------------------------
 Center     Atomic     Atomic              Coordinates (Angstroms)
 Number     Number      Type              X           Y           Z
 ---------------------------------------------------------------------
    1          6             0       -1.405185    0.042464    0.436617
    2          1             0       -1.118525   -0.254391    1.465326
    3          1             0       -1.329871    1.143299    0.368478
    4          6             0       -2.787112   -0.441430    0.100943
    5          1             0       -2.938771   -1.530081    0.140605
    6          6             0       -3.810517    0.354733   -0.224752
    7          1             0       -3.692037    1.442901   -0.272540
    8          1             0       -4.802272   -0.049583   -0.447042
    9         15             0        1.552552    0.091732    0.018417
   10          8             0        1.353607    1.605118   -0.146490
   11          8             0        2.273720   -0.671757   -1.099983
   12          8             0        1.613444   -0.478254    1.443298
   13          1             0       -0.539710   -0.270214   -1.430386
   14          1             0       -0.354787   -1.546041   -0.406700
   15          7             0       -0.355828   -0.517272   -0.448143
 ---------------------------------------------------------------------
                    Distance matrix (angstroms):
                    1          2          3          4          5
     1  C    0.000000
     2  H    1.108395   0.000000
     3  H    1.105510   1.789212   0.000000
     4  C    1.502183   2.163494   2.169444   0.000000
     5  H    2.216395   2.587579   3.128489   1.099880   0.000000
     6  C    2.514069   3.236389   2.669712   1.336903   2.108542
     7  H    2.773774   3.538919   2.465866   2.123460   3.094628
     8  H    3.511342   4.155609   3.761064   2.124782   2.451497
     9  P    2.987562   3.057450   3.088155   4.373071   4.776734
    10  O    3.223792   3.488146   2.771196   4.625487   5.323195
    11  O    4.050382   4.273446   4.293796   5.206467   5.426403
    12  O    3.224388   2.741214   3.528141   4.600888   4.850362
    13  H    2.081470   2.953037   2.420389   2.724904   3.132216
    14  H    2.082755   2.399195   2.963822   2.719205   2.641358
    15  N    1.482314   2.076578   2.091202   2.493670   2.836196
                    6          7          8          9         10
     6  C    0.000000
     7  H    1.095642   0.000000
     8  H    1.093829   1.868310   0.000000
     9  P    5.375017   5.423655   6.373414   0.000000
    10  O    5.313922   5.049825   6.381474   1.535288   0.000000
    11  O    6.231987   6.383315   7.133239   1.534216   2.634372
    12  O    5.735470   5.897718   6.702131   1.535864   2.633511
    13  H    3.541510   3.769952   4.380077   2.570525   2.958024
    14  H    3.948179   4.482078   4.692668   2.549699   3.593901
    15  N    3.570039   3.873424   4.470973   2.056812   2.741842
                   11         12         13         14         15
[...]
          Direct CPHF calculation.
          Solving linear equations simultaneously.
          Differentiating once with respect to magnetic field using GIAOs.
          Electric field/nuclear overlap derivatives assumed to be zero.
          Requested convergence is 1.0D-08 RMS, and 1.0D-07 maximum.
          Secondary convergence is 1.0D-12 RMS, and 1.0D-12 maximum.
          NewPWx=T KeepS1=F KeepF1=F KeepIn=T MapXYZ=F.
          MDV=     536870790 using IRadAn=       1.
 Generate precomputed XC quadrature information.
 Symmetry not used in FoFDir.
 MinBra= 0 MaxBra= 3 Meth= 1.
 IRaf=       0 NMat=   1 IRICut=       1 DoRegI=T DoRafI=F ISym2E= 0 JSym2E=0.
          There are   3 degrees of freedom in the 1st order CPHF.
     3 vectors were produced by pass  0.
 AX will form   3 AO Fock derivatives at one time.
     3 vectors were produced by pass  1.
     3 vectors were produced by pass  2.
     3 vectors were produced by pass  3.
     3 vectors were produced by pass  4.
     3 vectors were produced by pass  5.
 Inv2:  IOpt= 1 Iter= 1 AM= 6.08D-16 Conv= 1.00D-12.
 Inverted reduced A of dimension   18 with in-core refinement.
 Calculating GIAO nuclear magnetic shielding tensors.
 SCF GIAO Magnetic shielding tensor (ppm):
  1  C    Isotropic =   132.9399   Anisotropy =    31.6007
   XX=   151.4249   YX=     0.8757   ZX=    -7.1581
   XY=     1.3445   YY=   123.5801   ZY=     9.1709
   XZ=    -9.8870   YZ=    13.8761   ZZ=   123.8146
   Eigenvalues:   111.0012   133.8114   154.0070
  2  H    Isotropic =    27.6239   Anisotropy =     4.1651
   XX=    29.2491   YX=    -0.6025   ZX=    -0.7377
   XY=     0.2096   YY=    23.3176   ZY=    -0.5662
   XZ=     0.8233   YZ=    -1.0484   ZZ=    30.3048
   Eigenvalues:    23.2195    29.2515    30.4006
  3  H    Isotropic =    27.8851   Anisotropy =     5.0347
   XX=    30.3221   YX=    -0.6395   ZX=    -1.1283
   XY=    -1.3687   YY=    29.7051   ZY=     0.4231
   XZ=    -0.2839   YZ=     1.5627   ZZ=    23.6282
   Eigenvalues:    23.4267    28.9871    31.2416
  4  C    Isotropic =    39.1215   Anisotropy =   169.7904
   XX=    26.6378   YX=   -62.4596   ZX=   -38.6857
   XY=   -53.3328   YY=   -50.6664   ZY=     5.5869
   XZ=   -28.8958   YZ=    -0.7307   ZZ=   141.3932
   Eigenvalues:   -82.5038    47.5532   152.3151
  5  H    Isotropic =    25.3100   Anisotropy =     5.0239
   XX=    28.5481   YX=    -1.0744   ZX=     0.7022
   XY=     0.1177   YY=    23.0666   ZY=    -0.5506
   XZ=     0.2516   YZ=    -1.0447   ZZ=    24.3153
   Eigenvalues:    22.6694    24.6013    28.6593
  6  C    Isotropic =    61.6253   Anisotropy =   144.3926
   XX=    41.9251   YX=   -61.1641   ZX=   -26.4469
   XY=   -62.4836   YY=    -5.0372   ZY=    -3.9948
   XZ=   -36.4656   YZ=    -2.8985   ZZ=   147.9881
   Eigenvalues:   -49.9019    76.8908   157.8870
  7  H    Isotropic =    26.1591   Anisotropy =     5.9310
   XX=    28.1442   YX=    -4.3137   ZX=     0.7386
   XY=    -1.7430   YY=    24.5341   ZY=    -0.2882
   XZ=     0.7467   YZ=    -1.2820   ZZ=    25.7990
   Eigenvalues:    22.7789    25.5853    30.1131
  8  H    Isotropic =    26.2948   Anisotropy =     5.3385
   XX=    28.5689   YX=    -1.2810   ZX=     0.8440
   XY=    -3.3257   YY=    24.8126   ZY=    -0.8647
   XZ=     0.4720   YZ=    -0.6031   ZZ=    25.5029
   Eigenvalues:    23.6350    25.3956    29.8538
  9  P    Isotropic =   291.6586   Anisotropy =    84.6554
   XX=   201.7908   YX=   -42.3783   ZX=   -30.5478
   XY=   -41.6286   YY=   333.3302   ZY=    -6.1990
   XZ=   -29.7756   YZ=    -6.4401   ZZ=   339.8548
   Eigenvalues:   183.4844   343.3959   348.0956
 10  O    Isotropic =   190.4149   Anisotropy =   118.1729
   XX=   164.6075   YX=    -8.9022   ZX=    19.8182
   XY=    -0.6905   YY=   260.5903   ZY=   -21.9146
   XZ=    14.2628   YZ=   -40.0687   ZZ=   146.0469
   Eigenvalues:   131.0620   170.9858   269.1969
 11  O    Isotropic =   172.9126   Anisotropy =   115.7047
   XX=   186.1265   YX=   -15.8733   ZX=   -33.1048
   XY=   -23.8208   YY=   150.6195   ZY=    54.3328
   XZ=   -41.9861   YZ=    53.3600   ZZ=   181.9918
   Eigenvalues:   109.4951   159.1935   250.0491
 12  O    Isotropic =   192.2003   Anisotropy =   117.5264
   XX=   161.4790   YX=    16.5924   ZX=    15.2538
   XY=     5.5334   YY=   176.9751   ZY=   -62.6302
   XZ=    19.5846   YZ=   -45.5691   ZZ=   238.1467
   Eigenvalues:   133.2315   172.8181   270.5512
 13  H    Isotropic =    28.1006   Anisotropy =     7.9699
   XX=    27.4357   YX=    -0.9887   ZX=     1.4123
   XY=    -0.5613   YY=    23.6458   ZY=    -0.5846
   XZ=    -0.2395   YZ=    -1.5568   ZZ=    33.2204
   Eigenvalues:    23.4026    27.4854    33.4139
 14  H    Isotropic =    27.7877   Anisotropy =     8.4170
   XX=    26.9103   YX=     0.2372   ZX=    -0.8628
   XY=    -0.6411   YY=    33.3383   ZY=     0.1880
   XZ=    -1.2930   YZ=     1.2282   ZZ=    23.1145
   Eigenvalues:    22.7916    27.1724    33.3990
 15  N    Isotropic =   165.3153   Anisotropy =    61.0666
   XX=   203.8255   YX=     9.6208   ZX=     8.8995
   XY=     8.5775   YY=   144.4346   ZY=     3.7669
   XZ=     4.3224   YZ=     2.3182   ZZ=   147.6859
   Eigenvalues:   142.1976   147.7220   206.0264
 End of Minotr Frequency-dependent properties file   721 does not exist.
 Leave Link 1002 at Wed Jul  9 20:36:01 2008, MaxMem=  536870912 cpu:    1592.8
 (Enter /usr/local/Chem-Apps/g03_d01/g03/l601.exe)
 Copying SCF densities to generalized density rwf, ISCF=0 IROHF=0.

 **********************************************************************

            Population analysis using the SCF density.

 **********************************************************************

 Orbital symmetries:
       Occupied  (A) (A) (A) (A) (A) (A) (A) (A) (A) (A) (A) (A)
                 (A) (A) (A) (A) (A) (A) (A) (A) (A) (A) (A) (A)
                 (A) (A) (A) (A) (A) (A) (A) (A) (A) (A) (A) (A)
       Virtual   (A) (A) (A) (A) (A) (A) (A) (A) (A) (A) (A) (A)
                 (A) (A) (A) (A) (A) (A) (A) (A) (A) (A) (A) (A)
                 (A) (A) (A) (A) (A) (A) (A) (A) (A) (A) (A) (A)
                 (A) (A) (A) (A) (A) (A) (A) (A) (A) (A) (A) (A)
                 (A) (A) (A) (A) (A) (A) (A) (A) (A) (A) (A) (A)
                 (A) (A) (A) (A) (A) (A) (A) (A) (A) (A) (A) (A)
                 (A) (A) (A) (A) (A) (A) (A) (A) (A) (A) (A) (A)
                 (A) (A) (A) (A) (A) (A) (A) (A) (A) (A) (A) (A)
                 (A) (A) (A) (A) (A) (A) (A) (A) (A) (A) (A) (A)
                 (A) (A) (A) (A) (A) (A) (A) (A) (A) (A) (A) (A)
                 (A) (A) (A) (A) (A) (A) (A) (A) (A) (A) (A) (A)
                 (A) (A) (A) (A) (A) (A) (A) (A) (A) (A) (A) (A)
                 (A) (A) (A) (A) (A) (A) (A) (A) (A) (A) (A) (A)
                 (A) (A) (A) (A) (A) (A) (A) (A) (A) (A) (A) (A)
                 (A) (A) (A) (A) (A) (A) (A) (A) (A) (A) (A) (A)
                 (A) (A) (A) (A) (A) (A) (A) (A) (A) (A) (A) (A)
                 (A) (A) (A) (A) (A) (A) (A) (A) (A) (A) (A) (A)
                 (A) (A) (A) (A) (A) (A) (A) (A) (A) (A) (A) (A)
                 (A) (A) (A) (A) (A) (A) (A) (A) (A) (A) (A) (A)
                 (A) (A) (A) (A) (A) (A) (A) (A) (A) (A) (A) (A)
                 (A) (A) (A) (A) (A) (A) (A) (A) (A) (A) (A) (A)
                 (A) (A) (A) (A) (A) (A) (A) (A) (A) (A) (A) (A)
                 (A) (A) (A) (A) (A) (A) (A) (A) (A) (A) (A) (A)
                 (A) (A) (A) (A) (A) (A) (A) (A) (A) (A) (A) (A)
                 (A) (A) (A) (A) (A) (A) (A) (A) (A) (A) (A) (A)
                 (A) (A) (A) (A) (A) (A)
 The electronic state is 1-A.
 Alpha  occ. eigenvalues --  -77.12927 -19.03058 -19.03050 -19.02992 -14.36439
 Alpha  occ. eigenvalues --  -10.20860 -10.18208 -10.17159  -6.57590  -4.74233
 Alpha  occ. eigenvalues --   -4.73657  -4.73656  -0.96985  -0.92237  -0.88105
 Alpha  occ. eigenvalues --   -0.88095  -0.78504  -0.67946  -0.57165  -0.53415
 Alpha  occ. eigenvalues --   -0.49652  -0.48185  -0.44093  -0.43281  -0.39871
 Alpha  occ. eigenvalues --   -0.37730  -0.35453  -0.35149  -0.34927  -0.28375
 Alpha  occ. eigenvalues --   -0.27274  -0.27241  -0.26343  -0.24714  -0.24684
 Alpha  occ. eigenvalues --   -0.20841
 Alpha virt. eigenvalues --   -0.00435   0.04615   0.06948   0.07384   0.09227
 Alpha virt. eigenvalues --    0.11826   0.12040   0.13366   0.14544   0.15867
 Alpha virt. eigenvalues --    0.16266   0.19836   0.20966   0.23533   0.26142
 Alpha virt. eigenvalues --    0.27310   0.28813   0.28994   0.29810   0.31773
 Alpha virt. eigenvalues --    0.32497   0.33389   0.35169   0.37067   0.38085
 Alpha virt. eigenvalues --    0.40591   0.42198   0.43210   0.44094   0.45303
 Alpha virt. eigenvalues --    0.46301   0.47235   0.48327   0.49616   0.51557
 Alpha virt. eigenvalues --    0.52727   0.52998   0.53116   0.54863   0.56081
 Alpha virt. eigenvalues --    0.57187   0.59000   0.62595   0.63181   0.65716
 Alpha virt. eigenvalues --    0.66338   0.69359   0.70200   0.72077   0.73323
 Alpha virt. eigenvalues --    0.73761   0.75095   0.75678   0.76632   0.81769
 Alpha virt. eigenvalues --    0.83599   0.83794   0.86555   0.87780   0.90089
 Alpha virt. eigenvalues --    0.91343   0.92948   0.92977   0.98093   0.99793
 Alpha virt. eigenvalues --    1.00431   1.03597   1.08186   1.08507   1.11990
 Alpha virt. eigenvalues --    1.12764   1.14717   1.16350   1.18113   1.18924
 Alpha virt. eigenvalues --    1.20087   1.22411   1.24053   1.26446   1.28299
 Alpha virt. eigenvalues --    1.29385   1.30025   1.32203   1.34205   1.35509
 Alpha virt. eigenvalues --    1.37926   1.38699   1.39656   1.40027   1.40767
 Alpha virt. eigenvalues --    1.42748   1.43906   1.45125   1.45512   1.46462
 Alpha virt. eigenvalues --    1.47110   1.48313   1.49034   1.50964   1.52102
 Alpha virt. eigenvalues --    1.54472   1.56728   1.57937   1.61895   1.65719
 Alpha virt. eigenvalues --    1.66612   1.68137   1.72121   1.74025   1.76601
 Alpha virt. eigenvalues --    1.82443   1.85209   1.86330   1.87464   1.91805
 Alpha virt. eigenvalues --    2.04040   2.06663   2.08360   2.11737   2.14128
 Alpha virt. eigenvalues --    2.22659   2.25852   2.26845   2.26997   2.30117
 Alpha virt. eigenvalues --    2.32099   2.33470   2.34480   2.35041   2.38156
 Alpha virt. eigenvalues --    2.38936   2.40272   2.41784   2.43493   2.47589
 Alpha virt. eigenvalues --    2.50778   2.54200   2.54799   2.56682   2.58838
 Alpha virt. eigenvalues --    2.62854   2.64785   2.67477   2.71110   2.71471
 Alpha virt. eigenvalues --    2.74920   2.76190   2.79897   2.81524   2.84867
 Alpha virt. eigenvalues --    2.85590   2.86070   2.88558   2.91106   2.93417
 Alpha virt. eigenvalues --    2.96513   2.99155   3.00792   3.02455   3.05389
 Alpha virt. eigenvalues --    3.08284   3.09936   3.12691   3.14358   3.18273
 Alpha virt. eigenvalues --    3.21771   3.23983   3.25140   3.27150   3.29818
 Alpha virt. eigenvalues --    3.32729   3.34628   3.37874   3.38828   3.40576
 Alpha virt. eigenvalues --    3.45686   3.46357   3.48063   3.51061   3.54059
 Alpha virt. eigenvalues --    3.57542   3.60467   3.61725   3.63107   3.65763
 Alpha virt. eigenvalues --    3.68572   3.70163   3.72730   3.75466   3.77049
 Alpha virt. eigenvalues --    3.78549   3.80897   3.84296   3.84592   3.85307
 Alpha virt. eigenvalues --    3.85934   3.89507   3.91497   3.92628   3.93816
 Alpha virt. eigenvalues --    3.95537   3.98923   3.99353   4.01557   4.02743
 Alpha virt. eigenvalues --    4.04628   4.07499   4.09150   4.09796   4.14114
 Alpha virt. eigenvalues --    4.16589   4.17993   4.19493   4.23716   4.25533
 Alpha virt. eigenvalues --    4.27768   4.29659   4.31845   4.35030   4.38025
 Alpha virt. eigenvalues --    4.41479   4.43474   4.45481   4.51383   4.56066
 Alpha virt. eigenvalues --    4.62008   4.68713   4.71540   4.72145   4.74140
 Alpha virt. eigenvalues --    4.76045   4.81477   4.87136   4.91193   4.92263
 Alpha virt. eigenvalues --    4.95535   4.99456   5.01402   5.03336   5.07057
 Alpha virt. eigenvalues --    5.10655   5.16269   5.16985   5.19674   5.20236
 Alpha virt. eigenvalues --    5.20890   5.21163   5.21516   5.21836   5.22328
 Alpha virt. eigenvalues --    5.22394   5.23263   5.24580   5.24705   5.28305
 Alpha virt. eigenvalues --    5.33412   5.34412   5.34586   5.37115   5.39722
 Alpha virt. eigenvalues --    5.40779   5.42297   5.42776   5.48648   5.50057
 Alpha virt. eigenvalues --    5.50846   5.51690   5.55875   5.65192   5.68443
 Alpha virt. eigenvalues --    5.69315   5.71483   5.75574   5.79793   5.80516
 Alpha virt. eigenvalues --    5.88248   5.91821   5.96602   6.03998   6.05876
 Alpha virt. eigenvalues --    6.10878   6.12553   6.27360   6.31423   6.38544
 Alpha virt. eigenvalues --    6.39787   6.43863   6.44869   6.49485   6.75416
 Alpha virt. eigenvalues --    6.78058   6.78867   6.85437   6.87036   6.89669
 Alpha virt. eigenvalues --    6.93491   6.97105   6.98324   6.98448   9.14909
 Alpha virt. eigenvalues --    9.16449  10.12107  10.96367  12.41915  13.19385
 Alpha virt. eigenvalues --   14.08402
          Condensed to atoms (all electrons):
              1          2          3          4          5          6
     1  C    4.914732   0.382435   0.369170   0.294532  -0.040998  -0.055705
     2  H    0.382435   0.577807  -0.033301  -0.034221  -0.001591   0.000628
     3  H    0.369170  -0.033301   0.583836  -0.029853   0.005491  -0.004315
     4  C    0.294532  -0.034221  -0.029853   5.025605   0.408106   0.589849
     5  H   -0.040998  -0.001591   0.005491   0.408106   0.529094  -0.039794
     6  C   -0.055705   0.000628  -0.004315   0.589849  -0.039794   4.983970
     7  H   -0.004625   0.000382   0.002840  -0.050534   0.006753   0.407716
     8  H    0.007347  -0.000336  -0.000289  -0.043813  -0.008837   0.412543
     9  P   -0.020118   0.004094   0.005280  -0.002112  -0.000045  -0.000400
    10  O   -0.012136  -0.002331   0.024604   0.001051   0.000023  -0.000026
    11  O   -0.001291   0.000144   0.000105  -0.000485  -0.000032   0.000002
    12  O   -0.009676   0.022875  -0.002008   0.000215   0.000079  -0.000017
    13  H   -0.029284   0.007717  -0.005946  -0.000202  -0.000058   0.003111
    14  H   -0.026527  -0.005656   0.006589  -0.005093   0.003081   0.000326
    15  N    0.281326  -0.033239  -0.028636  -0.038321   0.000481   0.001727
              7          8          9         10         11         12
     1  C   -0.004625   0.007347  -0.020118  -0.012136  -0.001291  -0.009676
     2  H    0.000382  -0.000336   0.004094  -0.002331   0.000144   0.022875
     3  H    0.002840  -0.000289   0.005280   0.024604   0.000105  -0.002008
     4  C   -0.050534  -0.043813  -0.002112   0.001051  -0.000485   0.000215
     5  H    0.006753  -0.008837  -0.000045   0.000023  -0.000032   0.000079
     6  C    0.407716   0.412543  -0.000400  -0.000026   0.000002  -0.000017
     7  H    0.544908  -0.034698  -0.000081  -0.000064   0.000000   0.000004
     8  H   -0.034698   0.540081  -0.000006  -0.000001   0.000000   0.000000
     9  P   -0.000081  -0.000006  12.029298   0.699142   0.707207   0.698248
    10  O   -0.000064  -0.000001   0.699142   8.168831  -0.055945  -0.055579
    11  O    0.000000   0.000000   0.707207  -0.055945   8.179189  -0.055842
    12  O    0.000004   0.000000   0.698248  -0.055579  -0.055842   8.170702
    13  H    0.000165  -0.000124   0.013877   0.002509   0.004848   0.001791
    14  H    0.000072  -0.000018   0.016025   0.001736   0.005215   0.003104
    15  N    0.000109  -0.000300   0.066163  -0.048261  -0.052627  -0.049899
             13         14         15
     1  C   -0.029284  -0.026527   0.281326
     2  H    0.007717  -0.005656  -0.033239
     3  H   -0.005946   0.006589  -0.028636
     4  C   -0.000202  -0.005093  -0.038321
     5  H   -0.000058   0.003081   0.000481
     6  C    0.003111   0.000326   0.001727
     7  H    0.000165   0.000072   0.000109
     8  H   -0.000124  -0.000018  -0.000300
     9  P    0.013877   0.016025   0.066163
    10  O    0.002509   0.001736  -0.048261
    11  O    0.004848   0.005215  -0.052627
    12  O    0.001791   0.003104  -0.049899
    13  H    0.555968  -0.038546   0.338094
    14  H   -0.038546   0.550480   0.339182
    15  N    0.338094   0.339182   6.276954
 Mulliken atomic charges:
              1
     1  C   -0.049181
     2  H    0.114593
     3  H    0.106433
     4  C   -0.114724
     5  H    0.138244
     6  C   -0.299614
     7  H    0.127053
     8  H    0.128452
     9  P    0.783428
    10  O   -0.723553
    11  O   -0.730488
    12  O   -0.723999
    13  H    0.146079
    14  H    0.150030
    15  N   -0.052752
 Sum of Mulliken charges=  -1.00000
 Atomic charges with hydrogens summed into heavy atoms:
              1
     1  C    0.171845
     2  H    0.000000
     3  H    0.000000
     4  C    0.023520
     5  H    0.000000
     6  C   -0.044109
     7  H    0.000000
     8  H    0.000000
     9  P    0.783428
    10  O   -0.723553
    11  O   -0.730488
    12  O   -0.723999
    13  H    0.000000
    14  H    0.000000
    15  N    0.243357
 Sum of Mulliken charges=  -1.00000
 Electronic spatial extent (au):  <R**2>=  1485.1170
 Charge=    -1.0000 electrons
 Dipole moment (field-independent basis, Debye):
    X=   -15.3009    Y=    -2.7503    Z=    -1.4807  Tot=    15.6164
 Quadrupole moment (field-independent basis, Debye-Ang):
   XX=   -78.9198   YY=   -63.3183   ZZ=   -66.6403
   XY=     1.6125   XZ=     2.2476   YZ=     0.8717
 Traceless Quadrupole moment (field-independent basis, Debye-Ang):
   XX=    -9.2937   YY=     6.3078   ZZ=     2.9858
   XY=     1.6125   XZ=     2.2476   YZ=     0.8717
 Octapole moment (field-independent basis, Debye-Ang**2):
  XXX=   -54.8227  YYY=   -19.5550  ZZZ=    -9.2851  XYY=   -21.9146
  XXY=     6.7508  XXZ=     2.6219  XZZ=   -17.3664  YZZ=     4.8030
  YYZ=     1.4719  XYZ=    -0.1378
 Hexadecapole moment (field-independent basis, Debye-Ang**3):
 XXXX= -1571.1391 YYYY=  -240.8955 ZZZZ=  -232.7834 XXXY=    30.4008
 XXXZ=    52.7612 YYYX=   -14.7884 YYYZ=     3.2519 ZZZX=    -8.4870
 ZZZY=     2.1622 XXYY=  -311.6328 XXZZ=  -354.0983 YYZZ=   -79.8955
 XXYZ=    -7.4763 YYXZ=     5.6117 ZZXY=    12.8152
 N-N= 4.706049925830D+02 E-N=-2.703336958124D+03  KE= 7.370434595630D+02
 Calculating spin-rotation constants.
 Leave Link  601 at Wed Jul  9 20:36:17 2008, MaxMem=  536870912 cpu:      40.2
 (Enter /usr/local/Chem-Apps/g03_d01/g03/l9999.exe)
 1\1\ SGI ALTIX 4700 1.6GHZ/9MB-MAGELLAN\SP\RB3LYP\CC-pVTZ\C3H7N1O3P1(1
 -)\IK1\09-Jul-2008\0\\#p nmr=giao b3lyp/cc-pVTZ guess=read geom=checkp
 oint integral=(grid=ultrafine) scrf=(pcm,solvent=water,read) scf=(tigh
 t,novaracc,noincfock)\\Phosphamine form B, chemical shifts.\\-1,1\C,0,
 -1.4095187462,0.0654683984,0.4650085062\H,0,-1.1485799969,-0.232812213
 5,1.4882800839\H,0,-1.3574707148,1.1567728694,0.4002436158\C,0,-2.7698
 577029,-0.4412266842,0.0949490698\H,0,-2.9009992112,-1.5214471136,0.12
 54586631\C,0,-3.7920879845,0.3355217152,-0.2414994463\H,0,-3.694108600
 7,1.4147024194,-0.2797956624\H,0,-4.7629197533,-0.078208559,-0.4827031
 462\P,0,1.5002491872,0.0607732917,-0.0061467431\O,0,1.3789323602,1.560
 6241586,-0.1586814621\O,0,2.1912280123,-0.6979875401,-1.1182439597\O,0
 ,1.6314404641,-0.4892706086,1.3969254421\H,0,-0.5182944055,-0.22225098
 93,-1.3874881941\H,0,-0.3483911763,-1.5059406047,-0.3838855403\N,0,-0.
 3409140241,-0.4834951657,-0.4147735691\\Version=IA64L-G03RevD.01\State
 =1-A\HF=-740.74104\RMSD=3.807e-09\Thermal=0.\Dipole=-6.024834,-1.04802
 16,-0.5928419\PG=C01 [X(C3H7N1O3P1)]\\@


 WE ARE PERHAPS NOT FAR REMOVED FROM THE TIME WHEN WE SHALL BE ABLE TO SUBMIT
 THE BULK OF CHEMICAL PHENOMENA TO CALCULATION.

            -- JOSEPH LOUIS GAY-LUSSAC
               MEMOIRES DE LA SOCIETE D'ARCUEIL, 2, 207 (1808)
 Job cpu time:  0 days  0 hours 21 minutes 47.7 seconds.
 File lengths (MBytes):  RWF=    563 Int=      0 D2E=      0 Chk=     38 Scr=      1
 Normal termination of Gaussian 03 at Wed Jul  9 20:36:17 2008.
