 Entering Gaussian System, Link 0=g03
 Initial command:
 /usr/local/gaussian/g03/l1.exe /tmp/Gau-1511.inp -scrdir=/tmp/
 Entering Link 1 = /usr/local/gaussian/g03/l1.exe PID=      1512.
  
 Copyright (c) 1988,1990,1992,1993,1995,1998,2003,2004, Gaussian, Inc.
                  All Rights Reserved.
  
 This is the Gaussian(R) 03 program.  It is based on the
 the Gaussian(R) 98 system (copyright 1998, Gaussian, Inc.),
 the Gaussian(R) 94 system (copyright 1995, Gaussian, Inc.),
 the Gaussian 92(TM) system (copyright 1992, Gaussian, Inc.),
 the Gaussian 90(TM) system (copyright 1990, Gaussian, Inc.),
 the Gaussian 88(TM) system (copyright 1988, Gaussian, Inc.),
 the Gaussian 86(TM) system (copyright 1986, Carnegie Mellon
 University), and the Gaussian 82(TM) system (copyright 1983,
 Carnegie Mellon University). Gaussian is a federally registered
 trademark of Gaussian, Inc.
  
 This software contains proprietary and confidential information,
 including trade secrets, belonging to Gaussian, Inc.
  
 This software is provided under written license and may be
 used, copied, transmitted, or stored only in accord with that
 written license.
  
 The following legend is applicable only to US Government
 contracts under FAR:
  
                    RESTRICTED RIGHTS LEGEND
  
 Use, reproduction and disclosure by the US Government is
 subject to restrictions as set forth in subparagraphs (a)
 and (c) of the Commercial Computer Software - Restricted
 Rights clause in FAR 52.227-19.
  
 Gaussian, Inc.
 340 Quinnipiac St., Bldg. 40, Wallingford CT 06492
  
  
 ---------------------------------------------------------------
 Warning -- This program may not be used in any manner that
 competes with the business of Gaussian, Inc. or will provide
 assistance to any competitor of Gaussian, Inc.  The licensee
 of this program is prohibited from giving any competitor of
 Gaussian, Inc. access to this program.  By using this program,
 the user acknowledges that Gaussian, Inc. is engaged in the
 business of creating and licensing software in the field of
 computational chemistry and represents and warrants to the
 licensee that it is not a competitor of Gaussian, Inc. and that
 it will not use this program in any manner prohibited above.
 ---------------------------------------------------------------
  

 Cite this work as:
 Gaussian 03, Revision C.02,
 M. J. Frisch, G. W. Trucks, H. B. Schlegel, G. E. Scuseria, 
 M. A. Robb, J. R. Cheeseman, J. A. Montgomery, Jr., T. Vreven, 
 K. N. Kudin, J. C. Burant, J. M. Millam, S. S. Iyengar, J. Tomasi, 
 V. Barone, B. Mennucci, M. Cossi, G. Scalmani, N. Rega, 
 G. A. Petersson, H. Nakatsuji, M. Hada, M. Ehara, K. Toyota, 
 R. Fukuda, J. Hasegawa, M. Ishida, T. Nakajima, Y. Honda, O. Kitao, 
 H. Nakai, M. Klene, X. Li, J. E. Knox, H. P. Hratchian, J. B. Cross, 
 C. Adamo, J. Jaramillo, R. Gomperts, R. E. Stratmann, O. Yazyev, 
 A. J. Austin, R. Cammi, C. Pomelli, J. W. Ochterski, P. Y. Ayala, 
 K. Morokuma, G. A. Voth, P. Salvador, J. J. Dannenberg, 
 V. G. Zakrzewski, S. Dapprich, A. D. Daniels, M. C. Strain, 
 O. Farkas, D. K. Malick, A. D. Rabuck, K. Raghavachari, 
 J. B. Foresman, J. V. Ortiz, Q. Cui, A. G. Baboul, S. Clifford, 
 J. Cioslowski, B. B. Stefanov, G. Liu, A. Liashenko, P. Piskorz, 
 I. Komaromi, R. L. Martin, D. J. Fox, T. Keith, M. A. Al-Laham, 
 C. Y. Peng, A. Nanayakkara, M. Challacombe, P. M. W. Gill, 
 B. Johnson, W. Chen, M. W. Wong, C. Gonzalez, and J. A. Pople, 
 Gaussian, Inc., Wallingford CT, 2004.
 
 ******************************************
 Gaussian 03:  IA32L-G03RevC.02 12-Jun-2004
                 3-Apr-2006 
 ******************************************
 %mem=1000MB
 %nproc=1
 Will use up to    1 processors via shared memory.
 ------------------------------------------------------
 #p ub3lyp/EPR-II guess=mix geom=connectivity scf=tight
 ------------------------------------------------------
 1/38=1,57=2/1;
 2/17=6,18=5,40=1/2;
 3/5=21,11=2,16=1,25=1,30=1,74=-5/1,2,3;
 4/7=2,9=2,13=1/1;
 5/5=2,32=2,38=5/2;
 6/7=2,8=2,9=2,10=2,28=1/1;
 99/5=1,9=1/99;
 Leave Link    1 at Mon Apr  3 10:08:00 2006, MaxMem=  131072000 cpu:       0.1
 (Enter /usr/local/gaussian/g03/l101.exe)
 ----------------
 Carotene cation.
 ----------------
 Symbolic Z-matrix:
 Charge =  1 Multiplicity = 2
 C
 C                    1    B1
 C                    1    B2       2    A1
 C                    2    B3       1    A2       3    D1       0
 H                    2    B4       1    A3       3    D2       0
 C                    3    B5       1    A4       2    D3       0
 H                    3    B6       1    A5       2    D4       0
 C                    4    B7       2    A6       1    D5       0
 H                    4    B8       2    A7       1    D6       0
 H                    6    B9       3    A8       1    D7       0
 C                    8    B10      4    A9       2    D8       0
 H                    11   B11      8    A10      4    D9       0
 C                    11   B12      8    A11      4    D10      0
 H                    13   B13      11   A12      8    D11      0
 C                    13   B14      11   A13      8    D12      0
 C                    15   B15      13   A14      11   D13      0
 H                    16   B16      15   A15      13   D14      0
 C                    16   B17      15   A16      13   D15      0
 H                    18   B18      16   A17      15   D16      0
 C                    18   B19      16   A18      15   D17      0
 H                    20   B20      18   A19      16   D18      0
 C                    20   B21      18   A20      16   D19      0
 C                    22   B22      20   A21      18   D20      0
 H                    23   B23      22   A22      20   D21      0
 C                    23   B24      22   A23      20   D22      0
 H                    25   B25      23   A24      22   D23      0
 C                    25   B26      23   A25      22   D24      0
 H                    27   B27      25   A26      23   D25      0
 C                    27   B28      25   A27      23   D26      0
 H                    29   B29      27   A28      25   D27      0
 C                    29   B30      27   A29      25   D28      0
 C                    31   B31      29   A30      27   D29      0
 H                    32   B32      31   A31      29   D30      0
 C                    32   B33      31   A32      29   D31      0
 H                    34   B34      32   A33      31   D32      0
 C                    34   B35      32   A34      31   D33      0
 H                    36   B36      34   A35      32   D34      0
 C                    36   B37      34   A36      32   D35      0
 C                    38   B38      36   A37      34   D36      0
 H                    39   B39      38   A38      36   D37      0
 C                    39   B40      38   A39      36   D38      0
 H                    41   B41      39   A40      38   D39      0
 C                    15   B42      13   A41      11   D40      0
 H                    43   B43      15   A42      13   D41      0
 H                    43   B44      15   A43      13   D42      0
 H                    43   B45      15   A44      13   D43      0
 C                    22   B46      20   A45      18   D44      0
 H                    47   B47      22   A46      20   D45      0
 H                    47   B48      22   A47      20   D46      0
 H                    47   B49      22   A48      20   D47      0
 C                    31   B50      29   A49      27   D48      0
 H                    51   B51      31   A50      29   D49      0
 H                    51   B52      31   A51      29   D50      0
 H                    51   B53      31   A52      29   D51      0
 C                    38   B54      36   A53      34   D52      0
 H                    55   B55      38   A54      36   D53      0
 H                    55   B56      38   A55      36   D54      0
 H                    55   B57      38   A56      36   D55      0
 C                    41   B58      39   A57      38   D56      0
 C                    59   B59      41   A58      39   D57      0
 C                    59   B60      41   A59      39   D58      0
 C                    60   B61      59   A60      41   D59      0
 C                    61   B62      59   A61      41   D60      0
 C                    63   B63      61   A62      59   D61      0
 H                    62   B64      60   A63      59   D62      0
 H                    62   B65      60   A64      59   D63      0
 H                    63   B66      61   A65      59   D64      0
 H                    63   B67      61   A66      59   D65      0
 H                    64   B68      63   A67      61   D66      0
 H                    64   B69      63   A68      61   D67      0
 C                    61   B70      59   A69      41   D68      0
 H                    71   B71      61   A70      59   D69      0
 H                    71   B72      61   A71      59   D70      0
 H                    71   B73      61   A72      59   D71      0
 C                    61   B74      59   A73      41   D72      0
 H                    75   B75      61   A74      59   D73      0
 H                    75   B76      61   A75      59   D74      0
 H                    75   B77      61   A76      59   D75      0
 C                    60   B78      59   A77      41   D76      0
 H                    79   B79      60   A78      59   D77      0
 H                    79   B80      60   A79      59   D78      0
 H                    79   B81      60   A80      59   D79      0
 H                    1    B82      2    A81      4    D80      0
       Variables:
  B1                    1.39643                  
  B2                    1.39986                  
  B3                    1.39065                  
  B4                    1.08539                  
  B5                    1.38837                  
  B6                    1.08556                  
  B7                    1.4114                   
  B8                    1.0867                   
  B9                    1.08505                  
  B10                   1.45182                  
  B11                   1.08765                  
  B12                   1.36568                  
  B13                   1.08731                  
  B14                   1.43415                  
  B15                   1.38987                  
  B16                   1.08926                  
  B17                   1.40888                  
  B18                   1.08538                  
  B19                   1.38711                  
  B20                   1.089                    
  B21                   1.41374                  
  B22                   1.40267                  
  B23                   1.08937                  
  B24                   1.39705                  
  B25                   1.0871                   
  B26                   1.39626                  
  B27                   1.08705                  
  B28                   1.39674                  
  B29                   1.08938                  
  B30                   1.40327                  
  B31                   1.4129                   
  B32                   1.08898                  
  B33                   1.388                    
  B34                   1.0853                   
  B35                   1.40767                  
  B36                   1.08926                  
  B37                   1.39111                  
  B38                   1.43475                  
  B39                   1.08576                  
  B40                   1.36888                  
  B41                   1.08771                  
  B42                   1.50785                  
  B43                   1.09522                  
  B44                   1.0892                   
  B45                   1.09534                  
  B46                   1.50971                  
  B47                   1.09537                  
  B48                   1.09502                  
  B49                   1.08923                  
  B50                   1.50995                  
  B51                   1.08914                  
  B52                   1.09506                  
  B53                   1.09531                  
  B54                   1.50806                  
  B55                   1.08911                  
  B56                   1.09567                  
  B57                   1.09485                  
  B58                   1.45601                  
  B59                   1.36811                  
  B60                   1.55135                  
  B61                   1.51413                  
  B62                   1.5461                   
  B63                   1.52478                  
  B64                   1.09678                  
  B65                   1.10248                  
  B66                   1.0963                   
  B67                   1.09844                  
  B68                   1.09502                  
  B69                   1.09609                  
  B70                   1.54655                  
  B71                   1.094                    
  B72                   1.09479                  
  B73                   1.09516                  
  B74                   1.54766                  
  B75                   1.09497                  
  B76                   1.09543                  
  B77                   1.09326                  
  B78                   1.50963                  
  B79                   1.095                    
  B80                   1.09894                  
  B81                   1.09042                  
  B82                   1.08552                  
  A1                  119.84821                  
  A2                  119.90857                  
  A3                  120.17727                  
  A4                  120.3458                   
  A5                  119.92103                  
  A6                  121.11024                  
  A7                  119.80693                  
  A8                  119.1823                   
  A9                  118.37881                  
  A10                 114.5722                   
  A11                 127.31291                  
  A12                 118.99409                  
  A13                 125.29763                  
  A14                 117.65321                  
  A15                 116.48535                  
  A16                 127.46877                  
  A17                 118.81354                  
  A18                 122.78871                  
  A19                 117.27426                  
  A20                 126.00132                  
  A21                 117.54068                  
  A22                 116.11824                  
  A23                 127.65017                  
  A24                 119.61324                  
  A25                 123.00644                  
  A26                 117.28647                  
  A27                 123.15585                  
  A28                 116.29837                  
  A29                 127.55497                  
  A30                 117.61396                  
  A31                 116.8045                   
  A32                 125.85369                  
  A33                 118.26113                  
  A34                 122.99317                  
  A35                 116.15664                  
  A36                 127.34544                  
  A37                 117.70102                  
  A38                 115.90521                  
  A39                 125.00172                  
  A40                 116.49415                  
  A41                 119.48539                  
  A42                 110.60118                  
  A43                 112.92759                  
  A44                 110.67867                  
  A45                 119.98185                  
  A46                 110.77013                  
  A47                 110.72957                  
  A48                 112.79565                  
  A49                 122.42686                  
  A50                 112.81047                  
  A51                 110.77195                  
  A52                 110.73719                  
  A53                 122.70683                  
  A54                 112.961                    
  A55                 110.60927                  
  A56                 110.70967                  
  A57                 128.62686                  
  A58                 123.37895                  
  A59                 114.12974                  
  A60                 122.30242                  
  A61                 110.63972                  
  A62                 112.98047                  
  A63                 108.96909                  
  A64                 107.34823                  
  A65                 108.6232                   
  A66                 108.82176                  
  A67                 110.6556                   
  A68                 110.34017                  
  A69                 110.62121                  
  A70                 112.66458                  
  A71                 111.19908                  
  A72                 109.75809                  
  A73                 109.59721                  
  A74                 111.92768                  
  A75                 110.20871                  
  A76                 111.80114                  
  A77                 124.53794                  
  A78                 109.93322                  
  A79                 111.11179                  
  A80                 113.3453                   
  A81                 120.12954                  
  D1                    0.00401                  
  D2                  179.99694                  
  D3                    0.009                    
  D4                 -179.98904                  
  D5                   -0.00765                  
  D6                 -179.99434                  
  D7                  179.99438                  
  D8                  179.98545                  
  D9                   -0.20486                  
  D10                 179.83723                  
  D11                  -0.05654                  
  D12                 179.84362                  
  D13                -179.73938                  
  D14                  -0.22596                  
  D15                 179.56991                  
  D16                  -0.08573                  
  D17                -179.87973                  
  D18                  -0.25156                  
  D19                 179.45334                  
  D20                -179.63916                  
  D21                  -0.64428                  
  D22                 179.07213                  
  D23                  -0.12691                  
  D24                -179.8897                   
  D25                  -0.39679                  
  D26                 179.49043                  
  D27                  -0.12329                  
  D28                 180.                       
  D29                 179.63302                  
  D30                  -0.17263                  
  D31                -179.9564                   
  D32                  -0.38942                  
  D33                 179.37965                  
  D34                   0.17234                  
  D35                -179.43567                  
  D36                 179.22736                  
  D37                   0.35878                  
  D38                -176.65943                  
  D39                   3.48863                  
  D40                   0.19261                  
  D41                  58.80409                  
  D42                 179.43751                  
  D43                 -59.79815                  
  D44                   0.08914                  
  D45                 -61.45024                  
  D46                  57.48973                  
  D47                 177.90258                  
  D48                  -0.3461                   
  D49                   1.25939                  
  D50                 121.77007                  
  D51                -119.2639                   
  D52                  -0.47643                  
  D53                  -1.26311                  
  D54                 119.30665                  
  D55                -122.13429                  
  D56                 178.4515                   
  D57                  38.55727                  
  D58                -144.75782                  
  D59                -179.75864                  
  D60                 164.77485                  
  D61                  46.82892                  
  D62                -141.20687                  
  D63                 105.59724                  
  D64                 170.33538                  
  D65                 -74.19372                  
  D66                 178.20244                  
  D67                  60.72691                  
  D68                  46.21149                  
  D69                 -66.23842                  
  D70                  55.08825                  
  D71                 174.36705                  
  D72                 -73.80214                  
  D73                  58.33079                  
  D74                 177.49923                  
  D75                 -62.1784                   
  D76                   1.08061                  
  D77                 141.94661                  
  D78                -100.88136                  
  D79                  20.7374                   
  D80                -179.98727                  
 
                    Isotopes and Nuclear Properties:

  Atom         1           2           3           4           5           6           7           8           9          10
 IAtWgt=          12          12          12          12           1          12           1          12           1           1
 AtmWgt=  12.0000000  12.0000000  12.0000000  12.0000000   1.0078250  12.0000000   1.0078250  12.0000000   1.0078250   1.0078250
 IAtSpn=           0           0           0           0           1           0           1           0           1           1
 AtZEff=   0.0000000   0.0000000   0.0000000   0.0000000   0.0000000   0.0000000   0.0000000   0.0000000   0.0000000   0.0000000
 AtQMom=   0.0000000   0.0000000   0.0000000   0.0000000   0.0000000   0.0000000   0.0000000   0.0000000   0.0000000   0.0000000
 AtGFac=   0.0000000   0.0000000   0.0000000   0.0000000   2.7928460   0.0000000   2.7928460   0.0000000   2.7928460   2.7928460

  Atom        11          12          13          14          15          16          17          18          19          20
 IAtWgt=          12           1          12           1          12          12           1          12           1          12
 AtmWgt=  12.0000000   1.0078250  12.0000000   1.0078250  12.0000000  12.0000000   1.0078250  12.0000000   1.0078250  12.0000000
 IAtSpn=           0           1           0           1           0           0           1           0           1           0
 AtZEff=   0.0000000   0.0000000   0.0000000   0.0000000   0.0000000   0.0000000   0.0000000   0.0000000   0.0000000   0.0000000
 AtQMom=   0.0000000   0.0000000   0.0000000   0.0000000   0.0000000   0.0000000   0.0000000   0.0000000   0.0000000   0.0000000
 AtGFac=   0.0000000   2.7928460   0.0000000   2.7928460   0.0000000   0.0000000   2.7928460   0.0000000   2.7928460   0.0000000

  Atom        21          22          23          24          25          26          27          28          29          30
 IAtWgt=           1          12          12           1          12           1          12           1          12           1
 AtmWgt=   1.0078250  12.0000000  12.0000000   1.0078250  12.0000000   1.0078250  12.0000000   1.0078250  12.0000000   1.0078250
 IAtSpn=           1           0           0           1           0           1           0           1           0           1
 AtZEff=   0.0000000   0.0000000   0.0000000   0.0000000   0.0000000   0.0000000   0.0000000   0.0000000   0.0000000   0.0000000
 AtQMom=   0.0000000   0.0000000   0.0000000   0.0000000   0.0000000   0.0000000   0.0000000   0.0000000   0.0000000   0.0000000
 AtGFac=   2.7928460   0.0000000   0.0000000   2.7928460   0.0000000   2.7928460   0.0000000   2.7928460   0.0000000   2.7928460

  Atom        31          32          33          34          35          36          37          38          39          40
 IAtWgt=          12          12           1          12           1          12           1          12          12           1
 AtmWgt=  12.0000000  12.0000000   1.0078250  12.0000000   1.0078250  12.0000000   1.0078250  12.0000000  12.0000000   1.0078250
 IAtSpn=           0           0           1           0           1           0           1           0           0           1
 AtZEff=   0.0000000   0.0000000   0.0000000   0.0000000   0.0000000   0.0000000   0.0000000   0.0000000   0.0000000   0.0000000
 AtQMom=   0.0000000   0.0000000   0.0000000   0.0000000   0.0000000   0.0000000   0.0000000   0.0000000   0.0000000   0.0000000
 AtGFac=   0.0000000   0.0000000   2.7928460   0.0000000   2.7928460   0.0000000   2.7928460   0.0000000   0.0000000   2.7928460

  Atom        41          42          43          44          45          46          47          48          49          50
 IAtWgt=          12           1          12           1           1           1          12           1           1           1
 AtmWgt=  12.0000000   1.0078250  12.0000000   1.0078250   1.0078250   1.0078250  12.0000000   1.0078250   1.0078250   1.0078250
 IAtSpn=           0           1           0           1           1           1           0           1           1           1
 AtZEff=   0.0000000   0.0000000   0.0000000   0.0000000   0.0000000   0.0000000   0.0000000   0.0000000   0.0000000   0.0000000
 AtQMom=   0.0000000   0.0000000   0.0000000   0.0000000   0.0000000   0.0000000   0.0000000   0.0000000   0.0000000   0.0000000
 AtGFac=   0.0000000   2.7928460   0.0000000   2.7928460   2.7928460   2.7928460   0.0000000   2.7928460   2.7928460   2.7928460

  Atom        51          52          53          54          55          56          57          58          59          60
 IAtWgt=          12           1           1           1          12           1           1           1          12          12
 AtmWgt=  12.0000000   1.0078250   1.0078250   1.0078250  12.0000000   1.0078250   1.0078250   1.0078250  12.0000000  12.0000000
 IAtSpn=           0           1           1           1           0           1           1           1           0           0
 AtZEff=   0.0000000   0.0000000   0.0000000   0.0000000   0.0000000   0.0000000   0.0000000   0.0000000   0.0000000   0.0000000
 AtQMom=   0.0000000   0.0000000   0.0000000   0.0000000   0.0000000   0.0000000   0.0000000   0.0000000   0.0000000   0.0000000
 AtGFac=   0.0000000   2.7928460   2.7928460   2.7928460   0.0000000   2.7928460   2.7928460   2.7928460   0.0000000   0.0000000

  Atom        61          62          63          64          65          66          67          68          69          70
 IAtWgt=          12          12          12          12           1           1           1           1           1           1
 AtmWgt=  12.0000000  12.0000000  12.0000000  12.0000000   1.0078250   1.0078250   1.0078250   1.0078250   1.0078250   1.0078250
 IAtSpn=           0           0           0           0           1           1           1           1           1           1
 AtZEff=   0.0000000   0.0000000   0.0000000   0.0000000   0.0000000   0.0000000   0.0000000   0.0000000   0.0000000   0.0000000
 AtQMom=   0.0000000   0.0000000   0.0000000   0.0000000   0.0000000   0.0000000   0.0000000   0.0000000   0.0000000   0.0000000
 AtGFac=   0.0000000   0.0000000   0.0000000   0.0000000   2.7928460   2.7928460   2.7928460   2.7928460   2.7928460   2.7928460

  Atom        71          72          73          74          75          76          77          78          79          80
 IAtWgt=          12           1           1           1          12           1           1           1          12           1
 AtmWgt=  12.0000000   1.0078250   1.0078250   1.0078250  12.0000000   1.0078250   1.0078250   1.0078250  12.0000000   1.0078250
 IAtSpn=           0           1           1           1           0           1           1           1           0           1
 AtZEff=   0.0000000   0.0000000   0.0000000   0.0000000   0.0000000   0.0000000   0.0000000   0.0000000   0.0000000   0.0000000
 AtQMom=   0.0000000   0.0000000   0.0000000   0.0000000   0.0000000   0.0000000   0.0000000   0.0000000   0.0000000   0.0000000
 AtGFac=   0.0000000   2.7928460   2.7928460   2.7928460   0.0000000   2.7928460   2.7928460   2.7928460   0.0000000   2.7928460

  Atom        81          82          83
 IAtWgt=           1           1           1
 AtmWgt=   1.0078250   1.0078250   1.0078250
 IAtSpn=           1           1           1
 AtZEff=   0.0000000   0.0000000   0.0000000
 AtQMom=   0.0000000   0.0000000   0.0000000
 AtGFac=   2.7928460   2.7928460   2.7928460
 Leave Link  101 at Mon Apr  3 10:08:01 2006, MaxMem=  131072000 cpu:       0.1
 (Enter /usr/local/gaussian/g03/l202.exe)
 Stoichiometry    C37H46(1+,2)
 Framework group  C1[X(C37H46)]
 Deg. of freedom   243
 Full point group                 C1      NOp   1
 Largest Abelian subgroup         C1      NOp   1
 Largest concise Abelian subgroup C1      NOp   1
                         Standard orientation:                         
 ---------------------------------------------------------------------
 Center     Atomic     Atomic              Coordinates (Angstroms)
 Number     Number      Type              X           Y           Z
 ---------------------------------------------------------------------
    1          6             0       15.264966   -1.738620    0.025415
    2          6             0       15.331249   -0.354112    0.195025
    3          6             0       14.019896   -2.366881   -0.095773
    4          6             0       14.160857    0.395415    0.243026
    5          1             0       16.293769    0.138523    0.289600
    6          6             0       12.850097   -1.620625   -0.048420
    7          1             0       13.966985   -3.443124   -0.227488
    8          6             0       12.895936   -0.219032    0.122708
    9          1             0       14.214366    1.472749    0.374982
   10          1             0       11.895267   -2.126999   -0.144415
   11          6             0       11.712724    0.620217    0.181416
   12          1             0       11.916070    1.679576    0.320661
   13          6             0       10.409970    0.222489    0.082862
   14          1             0       10.190342   -0.833212   -0.056763
   15          6             0        9.270924    1.091304    0.150118
   16          6             0        8.011732    0.514083    0.036194
   17          1             0        7.983127   -0.566133   -0.100926
   18          6             0        6.763157    1.165194    0.081493
   19          1             0        6.739107    2.241258    0.221374
   20          6             0        5.558363    0.488802   -0.041094
   21          1             0        5.603843   -0.590144   -0.181533
   22          6             0        4.270516    1.070169    0.005136
   23          6             0        3.167412    0.214575   -0.131309
   24          1             0        3.394245   -0.841248   -0.274547
   25          6             0        1.813211    0.556451   -0.099674
   26          1             0        1.524438    1.594152    0.047187
   27          6             0        0.788536   -0.380887   -0.244534
   28          1             0        1.079029   -1.417680   -0.394052
   29          6             0       -0.566347   -0.044070   -0.203118
   30          1             0       -0.797334    1.008995   -0.046781
   31          6             0       -1.666245   -0.905129   -0.337169
   32          6             0       -2.957018   -0.336708   -0.253021
   33          1             0       -3.010365    0.738037   -0.085814
   34          6             0       -4.157251   -1.025571   -0.360088
   35          1             0       -4.121492   -2.096947   -0.529677
   36          6             0       -5.413066   -0.398502   -0.254019
   37          1             0       -5.399744    0.677162   -0.082992
   38          6             0       -6.665478   -0.998525   -0.335485
   39          6             0       -7.818594   -0.158999   -0.180459
   40          1             0       -7.618945    0.895385   -0.015235
   41          6             0       -9.114634   -0.599428   -0.168703
   42          1             0       -9.262011   -1.675468   -0.228101
   43          6             0        9.477696    2.572772    0.340181
   44          1             0       10.086722    2.984174   -0.471822
   45          1             0        8.543214    3.131704    0.366444
   46          1             0       10.010250    2.772018    1.276379
   47          6             0        4.121753    2.559616    0.201712
   48          1             0        4.548321    2.869216    1.161935
   49          1             0        4.652354    3.109031   -0.582933
   50          1             0        3.082781    2.886106    0.182751
   51          6             0       -1.509405   -2.389768   -0.563406
   52          1             0       -0.467311   -2.705554   -0.586802
   53          1             0       -2.007285   -2.958131    0.229210
   54          1             0       -1.965040   -2.687499   -1.513907
   55          6             0       -6.846943   -2.477048   -0.570606
   56          1             0       -5.903105   -3.007371   -0.689272
   57          1             0       -7.381206   -2.938129    0.267518
   58          1             0       -7.444396   -2.655516   -1.470543
   59          6             0      -10.335466    0.172981    0.012744
   60          6             0      -10.523139    1.419894   -0.518022
   61          6             0      -11.447174   -0.572809    0.796702
   62          6             0      -11.801449    2.204098   -0.309354
   63          6             0      -12.535673    0.416589    1.272818
   64          6             0      -12.989758    1.374628    0.176951
   65          1             0      -12.053179    2.729399   -1.238665
   66          1             0      -11.582311    3.002236    0.418940
   67          1             0      -13.382670   -0.157528    1.666328
   68          1             0      -12.139454    1.001535    2.113899
   69          1             0      -13.781435    2.035448    0.545247
   70          1             0      -13.418661    0.816574   -0.663307
   71          6             0      -10.863220   -1.249702    2.058693
   72          1             0      -10.165890   -2.057898    1.819141
   73          1             0      -10.336487   -0.525532    2.688536
   74          1             0      -11.673010   -1.685824    2.653175
   75          6             0      -12.079238   -1.659411   -0.106091
   76          1             0      -11.335204   -2.380651   -0.459898
   77          1             0      -12.835425   -2.222181    0.451978
   78          1             0      -12.558897   -1.226136   -0.987805
   79          6             0       -9.513449    2.147074   -1.372841
   80          1             0      -10.025468    2.695310   -2.170528
   81          1             0       -8.967683    2.899757   -0.786940
   82          1             0       -8.779197    1.484605   -1.832216
   83          1             0       16.176285   -2.327200   -0.012351
 ---------------------------------------------------------------------
 Rotational constants (GHZ):      0.4412363      0.0115799      0.0113718
 Leave Link  202 at Mon Apr  3 10:08:03 2006, MaxMem=  131072000 cpu:       0.1
 (Enter /usr/local/gaussian/g03/l301.exe)
 Standard basis: EPR-II (5D, 7F)
 There are   951 symmetry adapted basis functions of A   symmetry.
 Integral buffers will be    262144 words long.
 Raffenetti 2 integral format.
 Two-electron integral symmetry is turned on.
   951 basis functions,  1561 primitive gaussians,   988 cartesian basis functions
   134 alpha electrons      133 beta electrons
       nuclear repulsion energy      3076.5144071501 Hartrees.
 IExCor= 402 DFT=T Ex=B+HF Corr=LYP ExCW=0 ScaHFX=  0.200000
 ScaDFX=  0.800000  0.720000  1.000000  0.810000
 IRadAn=      0 IRanWt=     -1 IRanGd=            0 ICorTp=0
 NAtoms=   83 NActive=   83 NUniq=   83 SFac= 1.00D+00 NAtFMM=   60 Big=T
 Leave Link  301 at Mon Apr  3 10:08:05 2006, MaxMem=  131072000 cpu:       0.0
 (Enter /usr/local/gaussian/g03/l302.exe)
 NPDir=0 NMtPBC=     1 NCelOv=     1 NCel=       1 NClECP=     1 NCelD=      1
         NCelK=      1 NCelE2=     1 NClLst=     1 CellRange=     0.0.
 One-electron integrals computed using PRISM.
 NBasis=   951 RedAO= T  NBF=   951
 NBsUse=   951 1.00D-06 NBFU=   951
 Precomputing XC quadrature grid using
 IXCGrd= 2 IRadAn=           0 IRanWt=          -1 IRanGd=           0.
 NRdTot=    5555 NPtTot=      713726 NUsed=      738891 NTot=      738907
 NSgBfM=   614   620   624   626.
 Leave Link  302 at Mon Apr  3 10:08:27 2006, MaxMem=  131072000 cpu:      21.5
 (Enter /usr/local/gaussian/g03/l303.exe)
 DipDrv:  MaxL=1.
 Leave Link  303 at Mon Apr  3 10:08:30 2006, MaxMem=  131072000 cpu:       0.9
 (Enter /usr/local/gaussian/g03/l401.exe)
 SCF N**3 symmetry information disabled.
 Harris functional with IExCor=  402 diagonalized for initial guess.
 ExpMin= 4.79D-02 ExpMax= 4.23D+03 ExpMxC= 6.35D+02 IAcc=2 IRadAn=         4 AccDes= 0.00D+00
 HarFok:  IExCor= 402 AccDes= 0.00D+00 IRadAn=         4 IDoV=1
 ScaDFX=  1.000000  1.000000  1.000000  1.000000
 Harris En= -1438.07752672195    
 Initial guess orbital symmetries:
 Alpha Orbitals:
       Occupied  (A) (A) (A) (A) (A) (A) (A) (A) (A) (A) (A) (A)
                 (A) (A) (A) (A) (A) (A) (A) (A) (A) (A) (A) (A)
                 (A) (A) (A) (A) (A) (A) (A) (A) (A) (A) (A) (A)
                 (A) (A) (A) (A) (A) (A) (A) (A) (A) (A) (A) (A)
                 (A) (A) (A) (A) (A) (A) (A) (A) (A) (A) (A) (A)
                 (A) (A) (A) (A) (A) (A) (A) (A) (A) (A) (A) (A)
                 (A) (A) (A) (A) (A) (A) (A) (A) (A) (A) (A) (A)
                 (A) (A) (A) (A) (A) (A) (A) (A) (A) (A) (A) (A)
                 (A) (A) (A) (A) (A) (A) (A) (A) (A) (A) (A) (A)
                 (A) (A) (A) (A) (A) (A) (A) (A) (A) (A) (A) (A)
                 (A) (A) (A) (A) (A) (A) (A) (A) (A) (A) (A) (A)
                 (A) (A)
       Virtual   (A) (A) (A) (A) (A) (A) (A) (A) (A) (A) (A) (A)
                 (A) (A) (A) (A) (A) (A) (A) (A) (A) (A) (A) (A)
                 (A) (A) (A) (A) (A) (A) (A) (A) (A) (A) (A) (A)
                 (A) (A) (A) (A) (A) (A) (A) (A) (A) (A) (A) (A)
                 (A) (A) (A) (A) (A) (A) (A) (A) (A) (A) (A) (A)
                 (A) (A) (A) (A) (A) (A) (A) (A) (A) (A) (A) (A)
                 (A) (A) (A) (A) (A) (A) (A) (A) (A) (A) (A) (A)
                 (A) (A) (A) (A) (A) (A) (A) (A) (A) (A) (A) (A)
                 (A) (A) (A) (A) (A) (A) (A) (A) (A) (A) (A) (A)
                 (A) (A) (A) (A) (A) (A) (A) (A) (A) (A) (A) (A)
                 (A) (A) (A) (A) (A) (A) (A) (A) (A) (A) (A) (A)
                 (A) (A) (A) (A) (A) (A) (A) (A) (A) (A) (A) (A)
                 (A) (A) (A) (A) (A) (A) (A) (A) (A) (A) (A) (A)
                 (A) (A) (A) (A) (A) (A) (A) (A) (A) (A) (A) (A)
                 (A) (A) (A) (A) (A) (A) (A) (A) (A) (A) (A) (A)
                 (A) (A) (A) (A) (A) (A) (A) (A) (A) (A) (A) (A)
                 (A) (A) (A) (A) (A) (A) (A) (A) (A) (A) (A) (A)
                 (A) (A) (A) (A) (A) (A) (A) (A) (A) (A) (A) (A)
                 (A) (A) (A) (A) (A) (A) (A) (A) (A) (A) (A) (A)
                 (A) (A) (A) (A) (A) (A) (A) (A) (A) (A) (A) (A)
                 (A) (A) (A) (A) (A) (A) (A) (A) (A) (A) (A) (A)
                 (A) (A) (A) (A) (A) (A) (A) (A) (A) (A) (A) (A)
                 (A) (A) (A) (A) (A) (A) (A) (A) (A) (A) (A) (A)
                 (A) (A) (A) (A) (A) (A) (A) (A) (A) (A) (A) (A)
                 (A) (A) (A) (A) (A) (A) (A) (A) (A) (A) (A) (A)
                 (A) (A) (A) (A) (A) (A) (A) (A) (A) (A) (A) (A)
                 (A) (A) (A) (A) (A) (A) (A) (A) (A) (A) (A) (A)
                 (A) (A) (A) (A) (A) (A) (A) (A) (A) (A) (A) (A)
                 (A) (A) (A) (A) (A) (A) (A) (A) (A) (A) (A) (A)
                 (A) (A) (A) (A) (A) (A) (A) (A) (A) (A) (A) (A)
                 (A) (A) (A) (A) (A) (A) (A) (A) (A) (A) (A) (A)
                 (A) (A) (A) (A) (A) (A) (A) (A) (A) (A) (A) (A)
                 (A) (A) (A) (A) (A) (A) (A) (A) (A) (A) (A) (A)
                 (A) (A) (A) (A) (A) (A) (A) (A) (A) (A) (A) (A)
                 (A) (A) (A) (A) (A) (A) (A) (A) (A) (A) (A) (A)
                 (A) (A) (A) (A) (A) (A) (A) (A) (A) (A) (A) (A)
                 (A) (A) (A) (A) (A) (A) (A) (A) (A) (A) (A) (A)
                 (A) (A) (A) (A) (A) (A) (A) (A) (A) (A) (A) (A)
                 (A) (A) (A) (A) (A) (A) (A) (A) (A) (A) (A) (A)
                 (A) (A) (A) (A) (A) (A) (A) (A) (A) (A) (A) (A)
                 (A) (A) (A) (A) (A) (A) (A) (A) (A) (A) (A) (A)
                 (A) (A) (A) (A) (A) (A) (A) (A) (A) (A) (A) (A)
                 (A) (A) (A) (A) (A) (A) (A) (A) (A) (A) (A) (A)
                 (A) (A) (A) (A) (A) (A) (A) (A) (A) (A) (A) (A)
                 (A) (A) (A) (A) (A) (A) (A) (A) (A) (A) (A) (A)
                 (A) (A) (A) (A) (A) (A) (A) (A) (A) (A) (A) (A)
                 (A) (A) (A) (A) (A) (A) (A) (A) (A) (A) (A) (A)
                 (A) (A) (A) (A) (A) (A) (A) (A) (A) (A) (A) (A)
                 (A) (A) (A) (A) (A) (A) (A) (A) (A) (A) (A) (A)
                 (A) (A) (A) (A) (A) (A) (A) (A) (A) (A) (A) (A)
                 (A) (A) (A) (A) (A) (A) (A) (A) (A) (A) (A) (A)
                 (A) (A) (A) (A) (A) (A) (A) (A) (A) (A) (A) (A)
                 (A) (A) (A) (A) (A) (A) (A) (A) (A) (A) (A) (A)
                 (A) (A) (A) (A) (A) (A) (A) (A) (A) (A) (A) (A)
                 (A) (A) (A) (A) (A) (A) (A) (A) (A) (A) (A) (A)
                 (A) (A) (A) (A) (A) (A) (A) (A) (A) (A) (A) (A)
                 (A) (A) (A) (A) (A) (A) (A) (A) (A) (A) (A) (A)
                 (A) (A) (A) (A) (A) (A) (A) (A) (A) (A) (A) (A)
                 (A) (A) (A) (A) (A) (A) (A) (A) (A) (A) (A) (A)
                 (A) (A) (A) (A) (A) (A) (A) (A) (A) (A) (A) (A)
                 (A) (A) (A) (A) (A) (A) (A) (A) (A) (A) (A) (A)
                 (A) (A) (A) (A) (A) (A) (A) (A) (A) (A) (A) (A)
                 (A) (A) (A) (A) (A) (A) (A) (A) (A) (A) (A) (A)
                 (A) (A) (A) (A) (A) (A) (A) (A) (A) (A) (A) (A)
                 (A) (A) (A) (A) (A) (A) (A) (A) (A) (A) (A) (A)
                 (A) (A) (A) (A) (A) (A) (A) (A) (A) (A) (A) (A)
                 (A) (A) (A) (A) (A) (A) (A) (A) (A) (A) (A) (A)
                 (A) (A) (A) (A) (A) (A) (A) (A) (A) (A) (A) (A)
                 (A)
 Beta  Orbitals:
       Occupied  (A) (A) (A) (A) (A) (A) (A) (A) (A) (A) (A) (A)
                 (A) (A) (A) (A) (A) (A) (A) (A) (A) (A) (A) (A)
                 (A) (A) (A) (A) (A) (A) (A) (A) (A) (A) (A) (A)
                 (A) (A) (A) (A) (A) (A) (A) (A) (A) (A) (A) (A)
                 (A) (A) (A) (A) (A) (A) (A) (A) (A) (A) (A) (A)
                 (A) (A) (A) (A) (A) (A) (A) (A) (A) (A) (A) (A)
                 (A) (A) (A) (A) (A) (A) (A) (A) (A) (A) (A) (A)
                 (A) (A) (A) (A) (A) (A) (A) (A) (A) (A) (A) (A)
                 (A) (A) (A) (A) (A) (A) (A) (A) (A) (A) (A) (A)
                 (A) (A) (A) (A) (A) (A) (A) (A) (A) (A) (A) (A)
                 (A) (A) (A) (A) (A) (A) (A) (A) (A) (A) (A) (A)
                 (A)
       Virtual   (A) (A) (A) (A) (A) (A) (A) (A) (A) (A) (A) (A)
                 (A) (A) (A) (A) (A) (A) (A) (A) (A) (A) (A) (A)
                 (A) (A) (A) (A) (A) (A) (A) (A) (A) (A) (A) (A)
                 (A) (A) (A) (A) (A) (A) (A) (A) (A) (A) (A) (A)
                 (A) (A) (A) (A) (A) (A) (A) (A) (A) (A) (A) (A)
                 (A) (A) (A) (A) (A) (A) (A) (A) (A) (A) (A) (A)
                 (A) (A) (A) (A) (A) (A) (A) (A) (A) (A) (A) (A)
                 (A) (A) (A) (A) (A) (A) (A) (A) (A) (A) (A) (A)
                 (A) (A) (A) (A) (A) (A) (A) (A) (A) (A) (A) (A)
                 (A) (A) (A) (A) (A) (A) (A) (A) (A) (A) (A) (A)
                 (A) (A) (A) (A) (A) (A) (A) (A) (A) (A) (A) (A)
                 (A) (A) (A) (A) (A) (A) (A) (A) (A) (A) (A) (A)
                 (A) (A) (A) (A) (A) (A) (A) (A) (A) (A) (A) (A)
                 (A) (A) (A) (A) (A) (A) (A) (A) (A) (A) (A) (A)
                 (A) (A) (A) (A) (A) (A) (A) (A) (A) (A) (A) (A)
                 (A) (A) (A) (A) (A) (A) (A) (A) (A) (A) (A) (A)
                 (A) (A) (A) (A) (A) (A) (A) (A) (A) (A) (A) (A)
                 (A) (A) (A) (A) (A) (A) (A) (A) (A) (A) (A) (A)
                 (A) (A) (A) (A) (A) (A) (A) (A) (A) (A) (A) (A)
                 (A) (A) (A) (A) (A) (A) (A) (A) (A) (A) (A) (A)
                 (A) (A) (A) (A) (A) (A) (A) (A) (A) (A) (A) (A)
                 (A) (A) (A) (A) (A) (A) (A) (A) (A) (A) (A) (A)
                 (A) (A) (A) (A) (A) (A) (A) (A) (A) (A) (A) (A)
                 (A) (A) (A) (A) (A) (A) (A) (A) (A) (A) (A) (A)
                 (A) (A) (A) (A) (A) (A) (A) (A) (A) (A) (A) (A)
                 (A) (A) (A) (A) (A) (A) (A) (A) (A) (A) (A) (A)
                 (A) (A) (A) (A) (A) (A) (A) (A) (A) (A) (A) (A)
                 (A) (A) (A) (A) (A) (A) (A) (A) (A) (A) (A) (A)
                 (A) (A) (A) (A) (A) (A) (A) (A) (A) (A) (A) (A)
                 (A) (A) (A) (A) (A) (A) (A) (A) (A) (A) (A) (A)
                 (A) (A) (A) (A) (A) (A) (A) (A) (A) (A) (A) (A)
                 (A) (A) (A) (A) (A) (A) (A) (A) (A) (A) (A) (A)
                 (A) (A) (A) (A) (A) (A) (A) (A) (A) (A) (A) (A)
                 (A) (A) (A) (A) (A) (A) (A) (A) (A) (A) (A) (A)
                 (A) (A) (A) (A) (A) (A) (A) (A) (A) (A) (A) (A)
                 (A) (A) (A) (A) (A) (A) (A) (A) (A) (A) (A) (A)
                 (A) (A) (A) (A) (A) (A) (A) (A) (A) (A) (A) (A)
                 (A) (A) (A) (A) (A) (A) (A) (A) (A) (A) (A) (A)
                 (A) (A) (A) (A) (A) (A) (A) (A) (A) (A) (A) (A)
                 (A) (A) (A) (A) (A) (A) (A) (A) (A) (A) (A) (A)
                 (A) (A) (A) (A) (A) (A) (A) (A) (A) (A) (A) (A)
                 (A) (A) (A) (A) (A) (A) (A) (A) (A) (A) (A) (A)
                 (A) (A) (A) (A) (A) (A) (A) (A) (A) (A) (A) (A)
                 (A) (A) (A) (A) (A) (A) (A) (A) (A) (A) (A) (A)
                 (A) (A) (A) (A) (A) (A) (A) (A) (A) (A) (A) (A)
                 (A) (A) (A) (A) (A) (A) (A) (A) (A) (A) (A) (A)
                 (A) (A) (A) (A) (A) (A) (A) (A) (A) (A) (A) (A)
                 (A) (A) (A) (A) (A) (A) (A) (A) (A) (A) (A) (A)
                 (A) (A) (A) (A) (A) (A) (A) (A) (A) (A) (A) (A)
                 (A) (A) (A) (A) (A) (A) (A) (A) (A) (A) (A) (A)
                 (A) (A) (A) (A) (A) (A) (A) (A) (A) (A) (A) (A)
                 (A) (A) (A) (A) (A) (A) (A) (A) (A) (A) (A) (A)
                 (A) (A) (A) (A) (A) (A) (A) (A) (A) (A) (A) (A)
                 (A) (A) (A) (A) (A) (A) (A) (A) (A) (A) (A) (A)
                 (A) (A) (A) (A) (A) (A) (A) (A) (A) (A) (A) (A)
                 (A) (A) (A) (A) (A) (A) (A) (A) (A) (A) (A) (A)
                 (A) (A) (A) (A) (A) (A) (A) (A) (A) (A) (A) (A)
                 (A) (A) (A) (A) (A) (A) (A) (A) (A) (A) (A) (A)
                 (A) (A) (A) (A) (A) (A) (A) (A) (A) (A) (A) (A)
                 (A) (A) (A) (A) (A) (A) (A) (A) (A) (A) (A) (A)
                 (A) (A) (A) (A) (A) (A) (A) (A) (A) (A) (A) (A)
                 (A) (A) (A) (A) (A) (A) (A) (A) (A) (A) (A) (A)
                 (A) (A) (A) (A) (A) (A) (A) (A) (A) (A) (A) (A)
                 (A) (A) (A) (A) (A) (A) (A) (A) (A) (A) (A) (A)
                 (A) (A) (A) (A) (A) (A) (A) (A) (A) (A) (A) (A)
                 (A) (A) (A) (A) (A) (A) (A) (A) (A) (A) (A) (A)
                 (A) (A) (A) (A) (A) (A) (A) (A) (A) (A) (A) (A)
                 (A) (A) (A) (A) (A) (A) (A) (A) (A) (A) (A) (A)
                 (A) (A)
 The electronic state of the initial guess is 2-A.
 <S**2> of initial guess= 1.0000
 Leave Link  401 at Mon Apr  3 10:10:55 2006, MaxMem=  131072000 cpu:     144.1
 (Enter /usr/local/gaussian/g03/l502.exe)
 UHF open shell SCF:
 Requested convergence on RMS density matrix=1.00D-08 within 128 cycles.
 Requested convergence on MAX density matrix=1.00D-06.
 Requested convergence on             energy=1.00D-06.
 No special actions if energy rises.
 Using DIIS extrapolation, IDIIS=  1040.
 Integral symmetry usage will be decided dynamically.
       738890 words used for storage of precomputed grid.
 IEnd=   3939424 IEndB=   3939424 NGot= 131072000 MDV= 128126349
 LenX= 128126349
 Fock matrices will be formed incrementally for  20 cycles.

 Cycle   1  Pass 1  IDiag  1:
 FoFCou: FMM=T IPFlag=           0 FMFlag=      100000 FMFlg1=        8193
 NFxFlg=           0 DoJE=F BraDBF=F KetDBF=F FulRan=T.
 Petite list used in FoFCou.
 FMM levels:  10  Number of levels for PrismC:   9
 PrismC:  NFx=      2048 NFxT=        15 NFxU=        15.
 E= -1436.28930706356    
 DIIS: error= 2.26D-02 at cycle   1 NSaved=   1.
 NSaved= 1 IEnMin= 1 EnMin= -1436.28930706356     IErMin= 1 ErrMin= 2.26D-02
 ErrMax= 2.26D-02 EMaxC= 1.00D-01 BMatC= 4.11D+00 BMatP= 4.11D+00
 IDIUse=3 WtCom= 7.74D-01 WtEn= 2.26D-01
 Coeff-Com:  0.100D+01
 Coeff-En:   0.100D+01
 Coeff:      0.100D+01
 Gap=    -0.093 Goal=   None    Shift=    0.000
 Gap=    -0.096 Goal=   None    Shift=    0.000
 GapD=   -0.096 DampG=0.250 DampE=0.500 DampFc=0.2500 IDamp=-1.
 Damping current iteration by 2.50D-01
 RMSDP=4.49D-03 MaxDP=9.76D-01              OVMax= 6.87D-01

 Cycle   2  Pass 1  IDiag  1:
 RMSU=  1.07D-03    CP:  9.57D-01
 PrismC:  NFx=      2048 NFxT=        15 NFxU=        15.
 E= -1436.68497079322     Delta-E=       -0.395663729651 Rises=F Damp=T
 DIIS: error= 1.38D-02 at cycle   2 NSaved=   2.
 NSaved= 2 IEnMin= 2 EnMin= -1436.68497079322     IErMin= 2 ErrMin= 1.38D-02
 ErrMax= 1.38D-02 EMaxC= 1.00D-01 BMatC= 1.10D+00 BMatP= 4.11D+00
 IDIUse=3 WtCom= 8.62D-01 WtEn= 1.38D-01
 Coeff-Com: -0.710D+00 0.171D+01
 Coeff-En:   0.000D+00 0.100D+01
 Coeff:     -0.612D+00 0.161D+01
 Gap=     0.319 Goal=   None    Shift=    0.000
 Gap=     0.066 Goal=   None    Shift=    0.000
 RMSDP=2.61D-03 MaxDP=2.25D-01 DE=-3.96D-01 OVMax= 7.85D-01

 Cycle   3  Pass 1  IDiag  1:
 RMSU=  2.43D-03    CP:  8.40D-01  8.86D-01
 PrismC:  NFx=      2048 NFxT=        15 NFxU=        15.
 E= -1434.47933637568     Delta-E=        2.205634417532 Rises=F Damp=F
 DIIS: error= 3.40D-02 at cycle   3 NSaved=   3.
 NSaved= 3 IEnMin= 2 EnMin= -1436.68497079322     IErMin= 2 ErrMin= 1.38D-02
 ErrMax= 3.40D-02 EMaxC= 1.00D-01 BMatC= 5.30D+00 BMatP= 1.10D+00
 IDIUse=2 WtCom= 0.00D+00 WtEn= 1.00D+00
 Coeff-En:   0.000D+00 0.864D+00 0.136D+00
 Coeff:      0.000D+00 0.864D+00 0.136D+00
 Gap=     0.138 Goal=   None    Shift=    0.000
 Gap=     0.073 Goal=   None    Shift=    0.000
 RMSDP=2.44D-03 MaxDP=2.69D-01 DE= 2.21D+00 OVMax= 7.23D-01

 Cycle   4  Pass 1  IDiag  1:
 RMSU=  1.17D-03    CP:  8.31D-01  1.94D+00  2.50D-01
 PrismC:  NFx=      2048 NFxT=        15 NFxU=        15.
 E= -1437.03437807239     Delta-E=       -2.555041696702 Rises=F Damp=F
 DIIS: error= 1.55D-02 at cycle   4 NSaved=   4.
 NSaved= 4 IEnMin= 4 EnMin= -1437.03437807239     IErMin= 2 ErrMin= 1.38D-02
 ErrMax= 1.55D-02 EMaxC= 1.00D-01 BMatC= 1.18D+00 BMatP= 1.10D+00
 IDIUse=3 WtCom= 8.45D-01 WtEn= 1.55D-01
 EnCoef did     5 forward-backward iterations
 Coeff-Com:  0.135D-01 0.398D+00 0.146D+00 0.442D+00
 Coeff-En:   0.864D-01 0.000D+00 0.173D+00 0.740D+00
 Coeff:      0.248D-01 0.337D+00 0.151D+00 0.488D+00
 Gap=     0.019 Goal=   None    Shift=    0.000
 Gap=     0.008 Goal=   None    Shift=    0.000
 RMSDP=1.43D-03 MaxDP=1.99D-01 DE=-2.56D+00 OVMax= 7.15D-01

 Cycle   5  Pass 1  IDiag  1:
 RMSU=  7.78D-04    CP:  8.56D-01  9.50D-01  3.57D-01  6.12D-01
 PrismC:  NFx=      2048 NFxT=        15 NFxU=        15.
 E= -1437.48158516176     Delta-E=       -0.447207089379 Rises=F Damp=F
 DIIS: error= 8.58D-03 at cycle   5 NSaved=   5.
 NSaved= 5 IEnMin= 5 EnMin= -1437.48158516176     IErMin= 5 ErrMin= 8.58D-03
 ErrMax= 8.58D-03 EMaxC= 1.00D-01 BMatC= 1.48D-01 BMatP= 1.10D+00
 IDIUse=3 WtCom= 9.14D-01 WtEn= 8.58D-02
 Coeff-Com: -0.619D-01 0.239D+00 0.105D-01 0.210D+00 0.602D+00
 Coeff-En:   0.000D+00 0.000D+00 0.000D+00 0.181D+00 0.819D+00
 Coeff:     -0.566D-01 0.218D+00 0.963D-02 0.208D+00 0.621D+00
 Gap=     0.052 Goal=   None    Shift=    0.000
 Gap=     0.042 Goal=   None    Shift=    0.000
 RMSDP=5.67D-04 MaxDP=6.55D-02 DE=-4.47D-01 OVMax= 3.77D-01

 Cycle   6  Pass 1  IDiag  1:
 RMSU=  4.38D-04    CP:  8.53D-01  1.09D+00  3.12D-01  7.90D-01  7.05D-01
 PrismC:  NFx=      2048 NFxT=        15 NFxU=        15.
 E= -1437.53904744034     Delta-E=       -0.057462278580 Rises=F Damp=F
 DIIS: error= 4.58D-03 at cycle   6 NSaved=   6.
 NSaved= 6 IEnMin= 6 EnMin= -1437.53904744034     IErMin= 6 ErrMin= 4.58D-03
 ErrMax= 4.58D-03 EMaxC= 1.00D-01 BMatC= 6.96D-02 BMatP= 1.48D-01
 IDIUse=3 WtCom= 9.54D-01 WtEn= 4.58D-02
 Coeff-Com: -0.107D+00 0.206D+00-0.135D-01 0.588D-01 0.459D+00 0.397D+00
 Coeff-En:   0.000D+00 0.000D+00 0.000D+00 0.000D+00 0.235D+00 0.765D+00
 Coeff:     -0.102D+00 0.196D+00-0.129D-01 0.561D-01 0.449D+00 0.414D+00
 Gap=     0.055 Goal=   None    Shift=    0.000
 Gap=     0.043 Goal=   None    Shift=    0.000
 RMSDP=2.86D-04 MaxDP=2.75D-02 DE=-5.75D-02 OVMax= 1.46D-01

 Cycle   7  Pass 1  IDiag  1:
 RMSU=  1.81D-04    CP:  8.55D-01  1.09D+00  3.09D-01  7.26D-01  8.31D-01
                    CP:  5.81D-01
 PrismC:  NFx=      2048 NFxT=        15 NFxU=        15.
 E= -1437.56165181209     Delta-E=       -0.022604371750 Rises=F Damp=F
 DIIS: error= 1.96D-03 at cycle   7 NSaved=   7.
 NSaved= 7 IEnMin= 7 EnMin= -1437.56165181209     IErMin= 7 ErrMin= 1.96D-03
 ErrMax= 1.96D-03 EMaxC= 1.00D-01 BMatC= 7.07D-03 BMatP= 6.96D-02
 IDIUse=3 WtCom= 9.80D-01 WtEn= 1.96D-02
 Coeff-Com: -0.472D-01 0.856D-01-0.744D-02 0.193D-01 0.136D+00 0.229D+00
 Coeff-Com:  0.585D+00
 Coeff-En:   0.000D+00 0.000D+00 0.000D+00 0.000D+00 0.000D+00 0.115D+00
 Coeff-En:   0.885D+00
 Coeff:     -0.463D-01 0.839D-01-0.729D-02 0.189D-01 0.133D+00 0.226D+00
 Coeff:      0.591D+00
 Gap=     0.056 Goal=   None    Shift=    0.000
 Gap=     0.044 Goal=   None    Shift=    0.000
 RMSDP=1.25D-04 MaxDP=1.46D-02 DE=-2.26D-02 OVMax= 8.22D-02

 Cycle   8  Pass 1  IDiag  1:
 RMSU=  8.55D-05    CP:  8.54D-01  1.11D+00  3.05D-01  7.55D-01  7.80D-01
                    CP:  7.37D-01  9.02D-01
 PrismC:  NFx=      2048 NFxT=        15 NFxU=        15.
 E= -1437.56530089030     Delta-E=       -0.003649078204 Rises=F Damp=F
 DIIS: error= 1.14D-03 at cycle   8 NSaved=   8.
 NSaved= 8 IEnMin= 8 EnMin= -1437.56530089030     IErMin= 8 ErrMin= 1.14D-03
 ErrMax= 1.14D-03 EMaxC= 1.00D-01 BMatC= 2.54D-03 BMatP= 7.07D-03
 IDIUse=3 WtCom= 9.89D-01 WtEn= 1.14D-02
 Coeff-Com: -0.270D-02 0.336D-02 0.756D-03 0.534D-03-0.381D-01 0.319D-01
 Coeff-Com:  0.429D+00 0.575D+00
 Coeff-En:   0.000D+00 0.000D+00 0.000D+00 0.000D+00 0.000D+00 0.000D+00
 Coeff-En:   0.916D-01 0.908D+00
 Coeff:     -0.267D-02 0.332D-02 0.747D-03 0.528D-03-0.377D-01 0.315D-01
 Coeff:      0.425D+00 0.579D+00
 Gap=     0.059 Goal=   None    Shift=    0.000
 Gap=     0.047 Goal=   None    Shift=    0.000
 RMSDP=6.95D-05 MaxDP=1.07D-02 DE=-3.65D-03 OVMax= 4.88D-02

 Cycle   9  Pass 1  IDiag  1:
 RMSU=  4.88D-05    CP:  8.54D-01  1.12D+00  3.04D-01  7.63D-01  7.60D-01
                    CP:  7.51D-01  1.14D+00  9.17D-01
 PrismC:  NFx=      2048 NFxT=        15 NFxU=        15.
 E= -1437.56631114713     Delta-E=       -0.001010256833 Rises=F Damp=F
 DIIS: error= 5.13D-04 at cycle   9 NSaved=   9.
 NSaved= 9 IEnMin= 9 EnMin= -1437.56631114713     IErMin= 9 ErrMin= 5.13D-04
 ErrMax= 5.13D-04 EMaxC= 1.00D-01 BMatC= 9.43D-04 BMatP= 2.54D-03
 IDIUse=3 WtCom= 9.95D-01 WtEn= 5.13D-03
 Coeff-Com: -0.512D-02 0.489D-02 0.207D-02-0.519D-02-0.103D-01 0.102D-01
 Coeff-Com:  0.198D+00 0.360D+00 0.445D+00
 Coeff-En:   0.000D+00 0.000D+00 0.000D+00 0.000D+00 0.000D+00 0.000D+00
 Coeff-En:   0.000D+00 0.509D-02 0.995D+00
 Coeff:     -0.509D-02 0.486D-02 0.206D-02-0.516D-02-0.102D-01 0.101D-01
 Coeff:      0.197D+00 0.358D+00 0.448D+00
 Gap=     0.060 Goal=   None    Shift=    0.000
 Gap=     0.049 Goal=   None    Shift=    0.000
 RMSDP=2.72D-05 MaxDP=4.32D-03 DE=-1.01D-03 OVMax= 1.30D-02

 Cycle  10  Pass 1  IDiag  1:
 RMSU=  2.12D-05    CP:  8.54D-01  1.12D+00  3.06D-01  7.60D-01  7.65D-01
                    CP:  7.56D-01  1.12D+00  1.07D+00  9.61D-01
 PrismC:  NFx=      2048 NFxT=        15 NFxU=        15.
 E= -1437.56673383572     Delta-E=       -0.000422688592 Rises=F Damp=F
 DIIS: error= 3.87D-04 at cycle  10 NSaved=  10.
 NSaved=10 IEnMin=10 EnMin= -1437.56673383572     IErMin=10 ErrMin= 3.87D-04
 ErrMax= 3.87D-04 EMaxC= 1.00D-01 BMatC= 3.07D-04 BMatP= 9.43D-04
 IDIUse=3 WtCom= 9.96D-01 WtEn= 3.87D-03
 Coeff-Com: -0.134D-01 0.181D-01 0.974D-03-0.822D-02 0.482D-01 0.724D-02
 Coeff-Com: -0.847D-01-0.890D-01 0.202D+00 0.918D+00
 Coeff-En:   0.000D+00 0.000D+00 0.000D+00 0.000D+00 0.000D+00 0.000D+00
 Coeff-En:   0.000D+00 0.000D+00 0.000D+00 0.100D+01
 Coeff:     -0.134D-01 0.180D-01 0.970D-03-0.819D-02 0.480D-01 0.721D-02
 Coeff:     -0.844D-01-0.886D-01 0.202D+00 0.919D+00
 Gap=     0.062 Goal=   None    Shift=    0.000
 Gap=     0.051 Goal=   None    Shift=    0.000
 RMSDP=3.31D-05 MaxDP=4.56D-03 DE=-4.23D-04 OVMax= 1.80D-02

 Cycle  11  Pass 1  IDiag  1:
 RMSU=  2.00D-05    CP:  8.54D-01  1.11D+00  3.09D-01  7.51D-01  7.76D-01
                    CP:  7.56D-01  1.12D+00  1.13D+00  1.26D+00  1.58D+00
 PrismC:  NFx=      2048 NFxT=        15 NFxU=        15.
 E= -1437.56701257862     Delta-E=       -0.000278742897 Rises=F Damp=F
 DIIS: error= 1.77D-04 at cycle  11 NSaved=  11.
 NSaved=11 IEnMin=11 EnMin= -1437.56701257862     IErMin=11 ErrMin= 1.77D-04
 ErrMax= 1.77D-04 EMaxC= 1.00D-01 BMatC= 1.04D-04 BMatP= 3.07D-04
 IDIUse=3 WtCom= 9.98D-01 WtEn= 1.77D-03
 Coeff-Com: -0.505D-02 0.833D-02-0.451D-03-0.200D-02 0.294D-01-0.151D-01
 Coeff-Com: -0.127D+00-0.217D+00-0.919D-01 0.600D+00 0.822D+00
 Coeff-En:   0.000D+00 0.000D+00 0.000D+00 0.000D+00 0.000D+00 0.000D+00
 Coeff-En:   0.000D+00 0.000D+00 0.000D+00 0.000D+00 0.100D+01
 Coeff:     -0.504D-02 0.832D-02-0.450D-03-0.199D-02 0.294D-01-0.150D-01
 Coeff:     -0.127D+00-0.217D+00-0.917D-01 0.598D+00 0.822D+00
 Gap=     0.062 Goal=   None    Shift=    0.000
 Gap=     0.052 Goal=   None    Shift=    0.000
 RMSDP=2.54D-05 MaxDP=5.25D-03 DE=-2.79D-04 OVMax= 1.31D-02

 Cycle  12  Pass 1  IDiag  1:
 RMSU=  1.11D-05    CP:  8.54D-01  1.11D+00  3.10D-01  7.49D-01  7.77D-01
                    CP:  7.57D-01  1.14D+00  1.25D+00  1.48D+00  2.31D+00
                    CP:  1.21D+00
 PrismC:  NFx=      2048 NFxT=        15 NFxU=        15.
 E= -1437.56712405652     Delta-E=       -0.000111477903 Rises=F Damp=F
 DIIS: error= 1.66D-04 at cycle  12 NSaved=  12.
 NSaved=12 IEnMin=12 EnMin= -1437.56712405652     IErMin=12 ErrMin= 1.66D-04
 ErrMax= 1.66D-04 EMaxC= 1.00D-01 BMatC= 7.59D-05 BMatP= 1.04D-04
 IDIUse=3 WtCom= 9.98D-01 WtEn= 1.66D-03
 Coeff-Com:  0.214D-02-0.171D-02-0.721D-03 0.197D-02 0.760D-03-0.208D-01
 Coeff-Com: -0.625D-01-0.126D+00-0.953D-01 0.160D+00 0.586D+00 0.555D+00
 Coeff-En:   0.000D+00 0.000D+00 0.000D+00 0.000D+00 0.000D+00 0.000D+00
 Coeff-En:   0.000D+00 0.000D+00 0.000D+00 0.000D+00 0.000D+00 0.100D+01
 Coeff:      0.213D-02-0.171D-02-0.720D-03 0.197D-02 0.758D-03-0.207D-01
 Coeff:     -0.624D-01-0.126D+00-0.951D-01 0.160D+00 0.585D+00 0.556D+00
 Gap=     0.062 Goal=   None    Shift=    0.000
 Gap=     0.053 Goal=   None    Shift=    0.000
 RMSDP=1.35D-05 MaxDP=2.51D-03 DE=-1.11D-04 OVMax= 9.53D-03

 Cycle  13  Pass 1  IDiag  1:
 RMSU=  7.56D-06    CP:  8.54D-01  1.11D+00  3.10D-01  7.50D-01  7.74D-01
                    CP:  7.60D-01  1.17D+00  1.30D+00  1.61D+00  2.43D+00
                    CP:  1.41D+00  8.56D-01
 PrismC:  NFx=      2048 NFxT=        15 NFxU=        15.
 E= -1437.56717671643     Delta-E=       -0.000052659907 Rises=F Damp=F
 DIIS: error= 8.26D-05 at cycle  13 NSaved=  13.
 NSaved=13 IEnMin=13 EnMin= -1437.56717671643     IErMin=13 ErrMin= 8.26D-05
 ErrMax= 8.26D-05 EMaxC= 1.00D-01 BMatC= 1.55D-05 BMatP= 7.59D-05
 IDIUse=1 WtCom= 1.00D+00 WtEn= 0.00D+00
 Coeff-Com:  0.249D-02-0.288D-02-0.168D-03 0.203D-02-0.772D-02-0.788D-02
 Coeff-Com: -0.480D-02-0.187D-01 0.436D-02-0.617D-01 0.162D-01 0.307D+00
 Coeff-Com:  0.772D+00
 Coeff:      0.249D-02-0.288D-02-0.168D-03 0.203D-02-0.772D-02-0.788D-02
 Coeff:     -0.480D-02-0.187D-01 0.436D-02-0.617D-01 0.162D-01 0.307D+00
 Coeff:      0.772D+00
 Gap=     0.062 Goal=   None    Shift=    0.000
 Gap=     0.053 Goal=   None    Shift=    0.000
 RMSDP=8.48D-06 MaxDP=1.90D-03 DE=-5.27D-05 OVMax= 5.60D-03

 Cycle  14  Pass 1  IDiag  1:
 RMSU=  3.97D-06    CP:  8.54D-01  1.11D+00  3.10D-01  7.52D-01  7.71D-01
                    CP:  7.64D-01  1.18D+00  1.32D+00  1.67D+00  2.54D+00
                    CP:  1.44D+00  1.22D+00  1.23D+00
 PrismC:  NFx=      2048 NFxT=        15 NFxU=        15.
 E= -1437.56719101564     Delta-E=       -0.000014299215 Rises=F Damp=F
 DIIS: error= 4.14D-05 at cycle  14 NSaved=  14.
 NSaved=14 IEnMin=14 EnMin= -1437.56719101564     IErMin=14 ErrMin= 4.14D-05
 ErrMax= 4.14D-05 EMaxC= 1.00D-01 BMatC= 6.09D-06 BMatP= 1.55D-05
 IDIUse=1 WtCom= 1.00D+00 WtEn= 0.00D+00
 Coeff-Com:  0.233D-03-0.227D-03 0.104D-03 0.550D-03-0.268D-02 0.312D-02
 Coeff-Com:  0.139D-01 0.218D-01 0.359D-01-0.911D-01-0.189D+00 0.440D-02
 Coeff-Com:  0.528D+00 0.675D+00
 Coeff:      0.233D-03-0.227D-03 0.104D-03 0.550D-03-0.268D-02 0.312D-02
 Coeff:      0.139D-01 0.218D-01 0.359D-01-0.911D-01-0.189D+00 0.440D-02
 Coeff:      0.528D+00 0.675D+00
 Gap=     0.062 Goal=   None    Shift=    0.000
 Gap=     0.053 Goal=   None    Shift=    0.000
 RMSDP=4.87D-06 MaxDP=9.40D-04 DE=-1.43D-05 OVMax= 3.05D-03

 Cycle  15  Pass 1  IDiag  1:
 RMSU=  2.30D-06    CP:  8.54D-01  1.11D+00  3.10D-01  7.52D-01  7.70D-01
                    CP:  7.64D-01  1.19D+00  1.33D+00  1.71D+00  2.60D+00
                    CP:  1.49D+00  1.36D+00  1.62D+00  1.03D+00
 PrismC:  NFx=      2048 NFxT=        15 NFxU=        15.
 E= -1437.56719570246     Delta-E=       -0.000004686812 Rises=F Damp=F
 DIIS: error= 2.70D-05 at cycle  15 NSaved=  15.
 NSaved=15 IEnMin=15 EnMin= -1437.56719570246     IErMin=15 ErrMin= 2.70D-05
 ErrMax= 2.70D-05 EMaxC= 1.00D-01 BMatC= 2.09D-06 BMatP= 6.09D-06
 IDIUse=1 WtCom= 1.00D+00 WtEn= 0.00D+00
 Coeff-Com: -0.235D-03 0.183D-03 0.809D-04-0.914D-04 0.633D-03 0.341D-02
 Coeff-Com:  0.103D-01 0.185D-01 0.146D-01-0.546D-01-0.950D-01-0.631D-01
 Coeff-Com:  0.109D+00 0.389D+00 0.667D+00
 Coeff:     -0.235D-03 0.183D-03 0.809D-04-0.914D-04 0.633D-03 0.341D-02
 Coeff:      0.103D-01 0.185D-01 0.146D-01-0.546D-01-0.950D-01-0.631D-01
 Coeff:      0.109D+00 0.389D+00 0.667D+00
 Gap=     0.062 Goal=   None    Shift=    0.000
 Gap=     0.053 Goal=   None    Shift=    0.000
 RMSDP=2.46D-06 MaxDP=5.70D-04 DE=-4.69D-06 OVMax= 1.35D-03

 Cycle  16  Pass 1  IDiag  1:
 RMSU=  1.25D-06    CP:  8.54D-01  1.11D+00  3.10D-01  7.52D-01  7.70D-01
                    CP:  7.64D-01  1.19D+00  1.33D+00  1.72D+00  2.64D+00
                    CP:  1.52D+00  1.44D+00  1.75D+00  1.25D+00  1.11D+00
 PrismC:  NFx=      2048 NFxT=        15 NFxU=        15.
 E= -1437.56719716770     Delta-E=       -0.000001465239 Rises=F Damp=F
 DIIS: error= 2.16D-05 at cycle  16 NSaved=  16.
 NSaved=16 IEnMin=16 EnMin= -1437.56719716770     IErMin=16 ErrMin= 2.16D-05
 ErrMax= 2.16D-05 EMaxC= 1.00D-01 BMatC= 8.66D-07 BMatP= 2.09D-06
 IDIUse=1 WtCom= 1.00D+00 WtEn= 0.00D+00
 Coeff-Com: -0.131D-03 0.374D-04 0.204D-04-0.169D-03 0.116D-02 0.135D-02
 Coeff-Com:  0.429D-02 0.935D-02-0.220D-02-0.249D-01-0.723D-02-0.378D-01
 Coeff-Com: -0.655D-01 0.959D-01 0.443D+00 0.583D+00
 Coeff:     -0.131D-03 0.374D-04 0.204D-04-0.169D-03 0.116D-02 0.135D-02
 Coeff:      0.429D-02 0.935D-02-0.220D-02-0.249D-01-0.723D-02-0.378D-01
 Coeff:     -0.655D-01 0.959D-01 0.443D+00 0.583D+00
 Gap=     0.062 Goal=   None    Shift=    0.000
 Gap=     0.053 Goal=   None    Shift=    0.000
 RMSDP=1.34D-06 MaxDP=2.97D-04 DE=-1.47D-06 OVMax= 8.81D-04

 Cycle  17  Pass 1  IDiag  1:
 RMSU=  6.36D-07    CP:  8.54D-01  1.11D+00  3.10D-01  7.52D-01  7.70D-01
                    CP:  7.64D-01  1.18D+00  1.33D+00  1.73D+00  2.66D+00
                    CP:  1.54D+00  1.48D+00  1.82D+00  1.31D+00  1.36D+00
                    CP:  1.06D+00
 PrismC:  NFx=      2048 NFxT=        15 NFxU=        15.
 E= -1437.56719774139     Delta-E=       -0.000000573696 Rises=F Damp=F
 DIIS: error= 1.09D-05 at cycle  17 NSaved=  17.
 NSaved=17 IEnMin=17 EnMin= -1437.56719774139     IErMin=17 ErrMin= 1.09D-05
 ErrMax= 1.09D-05 EMaxC= 1.00D-01 BMatC= 1.82D-07 BMatP= 8.66D-07
 IDIUse=1 WtCom= 1.00D+00 WtEn= 0.00D+00
 Coeff-Com:  0.228D-04-0.486D-04-0.614D-05-0.381D-04 0.704D-04-0.601D-03
 Coeff-Com: -0.342D-03 0.169D-02-0.711D-02-0.254D-02 0.316D-01 0.753D-02
 Coeff-Com: -0.602D-01-0.705D-01-0.730D-01 0.226D+00 0.947D+00
 Coeff:      0.228D-04-0.486D-04-0.614D-05-0.381D-04 0.704D-04-0.601D-03
 Coeff:     -0.342D-03 0.169D-02-0.711D-02-0.254D-02 0.316D-01 0.753D-02
 Coeff:     -0.602D-01-0.705D-01-0.730D-01 0.226D+00 0.947D+00
 Gap=     0.062 Goal=   None    Shift=    0.000
 Gap=     0.053 Goal=   None    Shift=    0.000
 RMSDP=1.10D-06 MaxDP=2.63D-04 DE=-5.74D-07 OVMax= 8.30D-04

 Cycle  18  Pass 1  IDiag  1:
 RMSU=  4.59D-07    CP:  8.54D-01  1.11D+00  3.10D-01  7.52D-01  7.70D-01
                    CP:  7.64D-01  1.18D+00  1.33D+00  1.73D+00  2.68D+00
                    CP:  1.56D+00  1.51D+00  1.86D+00  1.39D+00  1.53D+00
                    CP:  1.45D+00  1.38D+00
 PrismC:  NFx=      2048 NFxT=        15 NFxU=        15.
 E= -1437.56719798422     Delta-E=       -0.000000242825 Rises=F Damp=F
 DIIS: error= 6.10D-06 at cycle  18 NSaved=  18.
 NSaved=18 IEnMin=18 EnMin= -1437.56719798422     IErMin=18 ErrMin= 6.10D-06
 ErrMax= 6.10D-06 EMaxC= 1.00D-01 BMatC= 8.24D-08 BMatP= 1.82D-07
 IDIUse=1 WtCom= 1.00D+00 WtEn= 0.00D+00
 Coeff-Com:  0.542D-04-0.334D-04-0.626D-05 0.258D-04-0.434D-03-0.953D-03
 Coeff-Com: -0.213D-02-0.169D-02-0.380D-02 0.749D-02 0.240D-01 0.155D-01
 Coeff-Com: -0.166D-01-0.704D-01-0.214D+00-0.869D-01 0.636D+00 0.714D+00
 Coeff:      0.542D-04-0.334D-04-0.626D-05 0.258D-04-0.434D-03-0.953D-03
 Coeff:     -0.213D-02-0.169D-02-0.380D-02 0.749D-02 0.240D-01 0.155D-01
 Coeff:     -0.166D-01-0.704D-01-0.214D+00-0.869D-01 0.636D+00 0.714D+00
 Gap=     0.062 Goal=   None    Shift=    0.000
 Gap=     0.053 Goal=   None    Shift=    0.000
 RMSDP=6.49D-07 MaxDP=1.57D-04 DE=-2.43D-07 OVMax= 4.45D-04

 Cycle  19  Pass 1  IDiag  1:
 RMSU=  2.52D-07    CP:  8.54D-01  1.11D+00  3.10D-01  7.52D-01  7.70D-01
                    CP:  7.64D-01  1.18D+00  1.33D+00  1.73D+00  2.68D+00
                    CP:  1.56D+00  1.52D+00  1.89D+00  1.42D+00  1.65D+00
                    CP:  1.64D+00  1.87D+00  1.35D+00
 PrismC:  NFx=      2048 NFxT=        15 NFxU=        15.
 E= -1437.56719807146     Delta-E=       -0.000000087242 Rises=F Damp=F
 DIIS: error= 3.64D-06 at cycle  19 NSaved=  19.
 NSaved=19 IEnMin=19 EnMin= -1437.56719807146     IErMin=19 ErrMin= 3.64D-06
 ErrMax= 3.64D-06 EMaxC= 1.00D-01 BMatC= 2.72D-08 BMatP= 8.24D-08
 IDIUse=1 WtCom= 1.00D+00 WtEn= 0.00D+00
 Coeff-Com:  0.142D-04 0.940D-05-0.147D-05 0.258D-04-0.216D-03-0.232D-03
 Coeff-Com: -0.153D-02-0.189D-02 0.180D-02 0.789D-02-0.265D-02-0.302D-03
 Coeff-Com:  0.161D-01 0.414D-02-0.729D-01-0.148D+00-0.781D-01 0.338D+00
 Coeff-Com:  0.938D+00
 Coeff:      0.142D-04 0.940D-05-0.147D-05 0.258D-04-0.216D-03-0.232D-03
 Coeff:     -0.153D-02-0.189D-02 0.180D-02 0.789D-02-0.265D-02-0.302D-03
 Coeff:      0.161D-01 0.414D-02-0.729D-01-0.148D+00-0.781D-01 0.338D+00
 Coeff:      0.938D+00
 Gap=     0.062 Goal=   None    Shift=    0.000
 Gap=     0.053 Goal=   None    Shift=    0.000
 RMSDP=4.70D-07 MaxDP=1.28D-04 DE=-8.72D-08 OVMax= 3.00D-04

 Cycle  20  Pass 1  IDiag  1:
 Restarting incremental Fock formation.
 PrismC:  NFx=      2048 NFxT=        15 NFxU=        15.
 E= -1437.56719810413     Delta-E=       -0.000000032668 Rises=F Damp=F
 DIIS: error= 1.75D-06 at cycle  20 NSaved=  20.
 NSaved=20 IEnMin=20 EnMin= -1437.56719810413     IErMin=20 ErrMin= 1.75D-06
 ErrMax= 1.75D-06 EMaxC= 1.00D-01 BMatC= 1.50D-08 BMatP= 2.72D-08
 IDIUse=1 WtCom= 1.00D+00 WtEn= 0.00D+00
 Coeff-Com: -0.929D-05 0.210D-04 0.298D-06 0.832D-05 0.223D-05 0.136D-03
 Coeff-Com: -0.514D-03-0.804D-03 0.275D-02 0.424D-02-0.100D-01-0.697D-02
 Coeff-Com:  0.141D-01 0.260D-01 0.184D-01-0.724D-01-0.247D+00 0.194D-01
 Coeff-Com:  0.677D+00 0.575D+00
 Coeff:     -0.929D-05 0.210D-04 0.298D-06 0.832D-05 0.223D-05 0.136D-03
 Coeff:     -0.514D-03-0.804D-03 0.275D-02 0.424D-02-0.100D-01-0.697D-02
 Coeff:      0.141D-01 0.260D-01 0.184D-01-0.724D-01-0.247D+00 0.194D-01
 Coeff:      0.677D+00 0.575D+00
 Gap=     0.062 Goal=   None    Shift=    0.000
 Gap=     0.053 Goal=   None    Shift=    0.000
 RMSDP=2.03D-07 MaxDP=4.20D-05 DE=-3.27D-08 OVMax= 1.36D-04

 Cycle  21  Pass 1  IDiag  1:
 RMSU=  2.03D-07    CP:  1.00D+00
 PrismC:  NFx=      2048 NFxT=        15 NFxU=        15.
 E= -1437.56719811373     Delta-E=       -0.000000009601 Rises=F Damp=F
 DIIS: error= 1.14D-06 at cycle  21 NSaved=  20.
 NSaved=20 IEnMin=20 EnMin= -1437.56719811373     IErMin=20 ErrMin= 1.14D-06
 ErrMax= 1.14D-06 EMaxC= 1.00D-01 BMatC= 1.87D-09 BMatP= 1.50D-08
 IDIUse=1 WtCom= 1.00D+00 WtEn= 0.00D+00
 Coeff-Com: -0.778D-05 0.914D-05-0.231D-05 0.443D-04 0.106D-03 0.558D-04
 Coeff-Com: -0.542D-04 0.107D-02 0.683D-03-0.471D-02-0.362D-02 0.303D-02
 Coeff-Com:  0.115D-01 0.256D-01-0.839D-03-0.110D+00-0.680D-01 0.123D+00
 Coeff-Com:  0.289D+00 0.732D+00
 Coeff:     -0.778D-05 0.914D-05-0.231D-05 0.443D-04 0.106D-03 0.558D-04
 Coeff:     -0.542D-04 0.107D-02 0.683D-03-0.471D-02-0.362D-02 0.303D-02
 Coeff:      0.115D-01 0.256D-01-0.839D-03-0.110D+00-0.680D-01 0.123D+00
 Coeff:      0.289D+00 0.732D+00
 Gap=     0.062 Goal=   None    Shift=    0.000
 Gap=     0.053 Goal=   None    Shift=    0.000
 RMSDP=9.16D-08 MaxDP=2.25D-05 DE=-9.60D-09 OVMax= 5.86D-05

 Cycle  22  Pass 1  IDiag  1:
 RMSU=  5.95D-08    CP:  1.00D+00  1.34D+00
 PrismC:  NFx=      2048 NFxT=        15 NFxU=        15.
 E= -1437.56719811517     Delta-E=       -0.000000001441 Rises=F Damp=F
 DIIS: error= 7.55D-07 at cycle  22 NSaved=  20.
 NSaved=20 IEnMin=20 EnMin= -1437.56719811517     IErMin=20 ErrMin= 7.55D-07
 ErrMax= 7.55D-07 EMaxC= 1.00D-01 BMatC= 6.55D-10 BMatP= 1.87D-09
 IDIUse=1 WtCom= 1.00D+00 WtEn= 0.00D+00
 Coeff-Com: -0.322D-05-0.227D-05 0.205D-04 0.198D-04 0.183D-03 0.183D-03
 Coeff-Com: -0.144D-03-0.908D-03 0.274D-04 0.201D-04-0.179D-02-0.546D-03
 Coeff-Com:  0.909D-02 0.191D-01 0.334D-02-0.404D-01-0.113D+00 0.101D-01
 Coeff-Com:  0.424D+00 0.691D+00
 Coeff:     -0.322D-05-0.227D-05 0.205D-04 0.198D-04 0.183D-03 0.183D-03
 Coeff:     -0.144D-03-0.908D-03 0.274D-04 0.201D-04-0.179D-02-0.546D-03
 Coeff:      0.909D-02 0.191D-01 0.334D-02-0.404D-01-0.113D+00 0.101D-01
 Coeff:      0.424D+00 0.691D+00
 Gap=     0.062 Goal=   None    Shift=    0.000
 Gap=     0.053 Goal=   None    Shift=    0.000
 RMSDP=4.44D-08 MaxDP=8.15D-06 DE=-1.44D-09 OVMax= 2.20D-05

 Cycle  23  Pass 1  IDiag  1:
 RMSU=  3.03D-08    CP:  1.00D+00  1.49D+00  1.21D+00
 PrismC:  NFx=      2048 NFxT=        15 NFxU=        15.
 E= -1437.56719811552     Delta-E=       -0.000000000352 Rises=F Damp=F
 DIIS: error= 3.35D-07 at cycle  23 NSaved=  20.
 NSaved=20 IEnMin=20 EnMin= -1437.56719811552     IErMin=20 ErrMin= 3.35D-07
 ErrMax= 3.35D-07 EMaxC= 1.00D-01 BMatC= 2.96D-10 BMatP= 6.55D-10
 IDIUse=1 WtCom= 1.00D+00 WtEn= 0.00D+00
 Coeff-Com: -0.402D-06-0.153D-06-0.343D-04 0.967D-04 0.150D-03-0.673D-03
 Coeff-Com: -0.111D-02 0.258D-02 0.201D-02-0.239D-02-0.597D-02-0.815D-02
 Coeff-Com:  0.111D-01 0.580D-01 0.116D-01-0.128D+00-0.133D+00-0.121D+00
 Coeff-Com:  0.387D+00 0.928D+00
 Coeff:     -0.402D-06-0.153D-06-0.343D-04 0.967D-04 0.150D-03-0.673D-03
 Coeff:     -0.111D-02 0.258D-02 0.201D-02-0.239D-02-0.597D-02-0.815D-02
 Coeff:      0.111D-01 0.580D-01 0.116D-01-0.128D+00-0.133D+00-0.121D+00
 Coeff:      0.387D+00 0.928D+00
 Gap=     0.062 Goal=   None    Shift=    0.000
 Gap=     0.053 Goal=   None    Shift=    0.000
 RMSDP=4.13D-08 MaxDP=7.95D-06 DE=-3.52D-10 OVMax= 1.98D-05

 Cycle  24  Pass 1  IDiag  1:
 RMSU=  2.79D-08    CP:  1.00D+00  1.56D+00  1.50D+00  1.67D+00
 PrismC:  NFx=      2048 NFxT=        15 NFxU=        15.
 E= -1437.56719811550     Delta-E=        0.000000000016 Rises=F Damp=F
 DIIS: error= 2.57D-07 at cycle  24 NSaved=  20.
 NSaved=20 IEnMin=19 EnMin= -1437.56719811552     IErMin=20 ErrMin= 2.57D-07
 ErrMax= 2.57D-07 EMaxC= 1.00D-01 BMatC= 1.04D-10 BMatP= 2.96D-10
 IDIUse=1 WtCom= 1.00D+00 WtEn= 0.00D+00
 Coeff-Com: -0.337D-05-0.227D-04 0.248D-04 0.775D-04-0.340D-03-0.547D-03
 Coeff-Com:  0.149D-02 0.108D-02-0.831D-03-0.276D-02-0.680D-02 0.977D-03
 Coeff-Com:  0.323D-01 0.139D-01-0.434D-01-0.762D-01-0.194D+00 0.290D-01
 Coeff-Com:  0.574D+00 0.672D+00
 Coeff:     -0.337D-05-0.227D-04 0.248D-04 0.775D-04-0.340D-03-0.547D-03
 Coeff:      0.149D-02 0.108D-02-0.831D-03-0.276D-02-0.680D-02 0.977D-03
 Coeff:      0.323D-01 0.139D-01-0.434D-01-0.762D-01-0.194D+00 0.290D-01
 Coeff:      0.574D+00 0.672D+00
 Gap=     0.062 Goal=   None    Shift=    0.000
 Gap=     0.053 Goal=   None    Shift=    0.000
 RMSDP=2.22D-08 MaxDP=3.99D-06 DE= 1.64D-11 OVMax= 9.70D-06

 Cycle  25  Pass 1  IDiag  1:
 RMSU=  1.11D-08    CP:  1.00D+00  1.60D+00  1.62D+00  2.10D+00  1.35D+00
 PrismC:  NFx=      2048 NFxT=        15 NFxU=        15.
 E= -1437.56719811561     Delta-E=       -0.000000000109 Rises=F Damp=F
 DIIS: error= 6.80D-08 at cycle  25 NSaved=  20.
 NSaved=20 IEnMin=20 EnMin= -1437.56719811561     IErMin=20 ErrMin= 6.80D-08
 ErrMax= 6.80D-08 EMaxC= 1.00D-01 BMatC= 1.98D-11 BMatP= 1.04D-10
 IDIUse=1 WtCom= 1.00D+00 WtEn= 0.00D+00
 Coeff-Com: -0.488D-05-0.201D-04 0.156D-05 0.103D-04 0.118D-04 0.876D-04
 Coeff-Com: -0.601D-04 0.200D-03 0.687D-03-0.112D-02-0.266D-02 0.845D-03
 Coeff-Com:  0.386D-03 0.158D-01 0.532D-02-0.635D-01-0.985D-01 0.138D-01
 Coeff-Com:  0.281D+00 0.848D+00
 Coeff:     -0.488D-05-0.201D-04 0.156D-05 0.103D-04 0.118D-04 0.876D-04
 Coeff:     -0.601D-04 0.200D-03 0.687D-03-0.112D-02-0.266D-02 0.845D-03
 Coeff:      0.386D-03 0.158D-01 0.532D-02-0.635D-01-0.985D-01 0.138D-01
 Coeff:      0.281D+00 0.848D+00
 Gap=     0.062 Goal=   None    Shift=    0.000
 Gap=     0.053 Goal=   None    Shift=    0.000
 RMSDP=1.95D-08 MaxDP=2.22D-06 DE=-1.09D-10 OVMax= 6.16D-06

 Cycle  26  Pass 1  IDiag  1:
 RMSU=  1.19D-08    CP:  1.00D+00  1.61D+00  1.69D+00  2.35D+00  1.69D+00
                    CP:  1.74D+00
 PrismC:  NFx=      2048 NFxT=        15 NFxU=        15.
 E= -1437.56719811582     Delta-E=       -0.000000000209 Rises=F Damp=F
 DIIS: error= 3.40D-08 at cycle  26 NSaved=  20.
 NSaved=20 IEnMin=20 EnMin= -1437.56719811582     IErMin=20 ErrMin= 3.40D-08
 ErrMax= 3.40D-08 EMaxC= 1.00D-01 BMatC= 5.23D-12 BMatP= 1.98D-11
 IDIUse=1 WtCom= 1.00D+00 WtEn= 0.00D+00
 Coeff-Com: -0.825D-05 0.200D-05 0.496D-04 0.665D-04-0.163D-03-0.194D-03
 Coeff-Com:  0.176D-03 0.825D-03 0.263D-03-0.135D-02-0.340D-02-0.316D-02
 Coeff-Com:  0.130D-01 0.144D-01-0.348D-02-0.420D-01-0.681D-01-0.525D-02
 Coeff-Com:  0.376D+00 0.723D+00
 Coeff:     -0.825D-05 0.200D-05 0.496D-04 0.665D-04-0.163D-03-0.194D-03
 Coeff:      0.176D-03 0.825D-03 0.263D-03-0.135D-02-0.340D-02-0.316D-02
 Coeff:      0.130D-01 0.144D-01-0.348D-02-0.420D-01-0.681D-01-0.525D-02
 Coeff:      0.376D+00 0.723D+00
 Gap=     0.062 Goal=   None    Shift=    0.000
 Gap=     0.053 Goal=   None    Shift=    0.000
 RMSDP=1.61D-08 MaxDP=1.18D-06 DE=-2.09D-10 OVMax= 2.69D-06

 Cycle  27  Pass 1  IDiag  1:
 RMSU=  7.16D-09    CP:  1.00D+00  1.62D+00  1.72D+00  2.47D+00  1.86D+00
                    CP:  2.46D+00  1.84D+00
 PrismC:  NFx=      2048 NFxT=        15 NFxU=        15.
 E= -1437.56719811646     Delta-E=       -0.000000000640 Rises=F Damp=F
 DIIS: error= 3.09D-08 at cycle  27 NSaved=  20.
 NSaved=20 IEnMin=20 EnMin= -1437.56719811646     IErMin=20 ErrMin= 3.09D-08
 ErrMax= 3.09D-08 EMaxC= 1.00D-01 BMatC= 2.34D-12 BMatP= 5.23D-12
 IDIUse=1 WtCom= 1.00D+00 WtEn= 0.00D+00
 Coeff-Com:  0.403D-05 0.187D-04 0.286D-04-0.890D-04-0.934D-04 0.254D-04
 Coeff-Com:  0.352D-03 0.273D-03-0.131D-03-0.146D-02-0.260D-02 0.348D-02
 Coeff-Com:  0.724D-02 0.103D-01 0.112D-02-0.380D-01-0.848D-01 0.305D-01
 Coeff-Com:  0.428D+00 0.646D+00
 Coeff:      0.403D-05 0.187D-04 0.286D-04-0.890D-04-0.934D-04 0.254D-04
 Coeff:      0.352D-03 0.273D-03-0.131D-03-0.146D-02-0.260D-02 0.348D-02
 Coeff:      0.724D-02 0.103D-01 0.112D-02-0.380D-01-0.848D-01 0.305D-01
 Coeff:      0.428D+00 0.646D+00
 Gap=     0.062 Goal=   None    Shift=    0.000
 Gap=     0.053 Goal=   None    Shift=    0.000
 RMSDP=1.84D-08 MaxDP=1.28D-06 DE=-6.40D-10 OVMax= 1.68D-06

 Cycle  28  Pass 1  IDiag  1:
 RMSU=  7.09D-09    CP:  1.00D+00  1.63D+00  1.74D+00  2.56D+00  2.02D+00
                    CP:  3.00D+00  2.88D+00  1.97D+00
 PrismC:  NFx=      2048 NFxT=        15 NFxU=        15.
 E= -1437.56719811723     Delta-E=       -0.000000000768 Rises=F Damp=F
 DIIS: error= 2.65D-08 at cycle  28 NSaved=  20.
 NSaved=20 IEnMin=20 EnMin= -1437.56719811723     IErMin=20 ErrMin= 2.65D-08
 ErrMax= 2.65D-08 EMaxC= 1.00D-01 BMatC= 1.49D-12 BMatP= 2.34D-12
 IDIUse=1 WtCom= 1.00D+00 WtEn= 0.00D+00
 Coeff-Com:  0.114D-04 0.236D-04-0.651D-04-0.651D-04 0.187D-04 0.252D-03
 Coeff-Com:  0.239D-03-0.524D-04-0.124D-02-0.205D-02 0.235D-02 0.540D-02
 Coeff-Com:  0.924D-02 0.418D-02-0.267D-01-0.706D-01-0.539D-02 0.252D+00
 Coeff-Com:  0.456D+00 0.377D+00
 Coeff:      0.114D-04 0.236D-04-0.651D-04-0.651D-04 0.187D-04 0.252D-03
 Coeff:      0.239D-03-0.524D-04-0.124D-02-0.205D-02 0.235D-02 0.540D-02
 Coeff:      0.924D-02 0.418D-02-0.267D-01-0.706D-01-0.539D-02 0.252D+00
 Coeff:      0.456D+00 0.377D+00
 Gap=     0.062 Goal=   None    Shift=    0.000
 Gap=     0.053 Goal=   None    Shift=    0.000
 RMSDP=1.28D-08 MaxDP=8.40D-07 DE=-7.68D-10 OVMax= 6.25D-07

 Cycle  29  Pass 1  IDiag  1:
 RMSU=  7.66D-09    CP:  1.00D+00  1.63D+00  1.76D+00  2.62D+00  2.11D+00
                    CP:  3.00D+00  3.00D+00  2.85D+00  1.84D+00
 PrismC:  NFx=      2048 NFxT=        15 NFxU=        15.
 E= -1437.56719811733     Delta-E=       -0.000000000098 Rises=F Damp=F
 DIIS: error= 3.85D-08 at cycle  29 NSaved=  20.
 NSaved=20 IEnMin=20 EnMin= -1437.56719811733     IErMin=19 ErrMin= 2.65D-08
 ErrMax= 3.85D-08 EMaxC= 1.00D-01 BMatC= 1.71D-12 BMatP= 1.49D-12
 IDIUse=1 WtCom= 1.00D+00 WtEn= 0.00D+00
 Coeff-Com:  0.151D-04-0.401D-04-0.461D-04-0.111D-04 0.175D-03 0.171D-03
 Coeff-Com:  0.894D-04-0.660D-03-0.178D-02 0.889D-03 0.363D-02 0.825D-02
 Coeff-Com:  0.976D-02-0.168D-01-0.767D-01-0.502D-01 0.198D+00 0.526D+00
 Coeff-Com:  0.785D+00-0.386D+00
 Coeff:      0.151D-04-0.401D-04-0.461D-04-0.111D-04 0.175D-03 0.171D-03
 Coeff:      0.894D-04-0.660D-03-0.178D-02 0.889D-03 0.363D-02 0.825D-02
 Coeff:      0.976D-02-0.168D-01-0.767D-01-0.502D-01 0.198D+00 0.526D+00
 Coeff:      0.785D+00-0.386D+00
 Gap=     0.062 Goal=   None    Shift=    0.000
 Gap=     0.053 Goal=   None    Shift=    0.000
 RMSDP=5.68D-09 MaxDP=3.66D-07 DE=-9.78D-11 OVMax= 2.04D-07

[...]
              Bcc     0.0034     1.833     0.654     0.611  0.3912  0.9092  0.1425
 
              Baa    -0.0372    -4.993    -1.782    -1.666 -0.6368  0.7644  0.1008
    25 C(13)  Bbb    -0.0310    -4.160    -1.484    -1.388  0.7710  0.6295  0.0964
              Bcc     0.0682     9.153     3.266     3.053 -0.0103 -0.1391  0.9902
 
              Baa    -0.0034    -1.821    -0.650    -0.607  0.9998  0.0174  0.0033
    26 H(1)   Bbb    -0.0017    -0.897    -0.320    -0.299 -0.0010 -0.1319  0.9913
              Bcc     0.0051     2.719     0.970     0.907 -0.0177  0.9911  0.1319
 
              Baa    -0.0250    -3.354    -1.197    -1.119 -0.5921  0.7976  0.1151
    27 C(13)  Bbb    -0.0180    -2.416    -0.862    -0.806  0.8058  0.5846  0.0942
              Bcc     0.0430     5.770     2.059     1.925 -0.0078 -0.1485  0.9889
 
              Baa    -0.0023    -1.252    -0.447    -0.418  0.9960 -0.0871  0.0189
    28 H(1)   Bbb    -0.0017    -0.926    -0.330    -0.309 -0.0315 -0.1453  0.9889
              Bcc     0.0041     2.178     0.777     0.726  0.0834  0.9855  0.1475
 
              Baa    -0.0220    -2.950    -1.053    -0.984 -0.5390  0.8341  0.1170
    29 C(13)  Bbb    -0.0138    -1.845    -0.658    -0.616  0.8423  0.5328  0.0816
              Bcc     0.0357     4.796     1.711     1.600 -0.0057 -0.1425  0.9898
 
              Baa    -0.0021    -1.139    -0.407    -0.380  0.9731 -0.1976 -0.1182
    30 H(1)   Bbb    -0.0019    -1.013    -0.362    -0.338  0.0868 -0.1607  0.9832
              Bcc     0.0040     2.153     0.768     0.718  0.2132  0.9670  0.1392
 
              Baa    -0.0513    -6.883    -2.456    -2.296 -0.5819  0.8042  0.1207
    31 C(13)  Bbb    -0.0448    -6.009    -2.144    -2.004  0.8132  0.5748  0.0911
              Bcc     0.0961    12.892     4.600     4.300 -0.0039 -0.1511  0.9885
 
              Baa    -0.0228    -3.057    -1.091    -1.020 -0.0029 -0.1611  0.9869
    32 C(13)  Bbb     0.0061     0.817     0.291     0.272 -0.3231  0.9341  0.1515
              Bcc     0.0167     2.240     0.799     0.747  0.9463  0.3185  0.0548
 
              Baa    -0.0022    -1.173    -0.419    -0.391 -0.0253 -0.1100  0.9936
    33 H(1)   Bbb    -0.0014    -0.726    -0.259    -0.242 -0.5112  0.8555  0.0817
              Bcc     0.0036     1.900     0.678     0.634  0.8591  0.5059  0.0779
 
              Baa    -0.0669    -8.974    -3.202    -2.993 -0.5252  0.8396  0.1388
    34 C(13)  Bbb    -0.0635    -8.515    -3.038    -2.840  0.8510  0.5189  0.0815
              Bcc     0.1303    17.489     6.241     5.834  0.0036 -0.1609  0.9870
 
              Baa    -0.0065    -3.478    -1.241    -1.160  0.9974 -0.0701 -0.0173
    35 H(1)   Bbb    -0.0014    -0.771    -0.275    -0.257  0.0053 -0.1673  0.9859
              Bcc     0.0080     4.249     1.516     1.417  0.0720  0.9834  0.1665
 
              Baa    -0.0263    -3.532    -1.260    -1.178  0.0093 -0.1525  0.9883
    36 C(13)  Bbb     0.0073     0.978     0.349     0.326 -0.1817  0.9716  0.1516
              Bcc     0.0190     2.554     0.911     0.852  0.9833  0.1809  0.0187
 
              Baa    -0.0023    -1.219    -0.435    -0.407  0.0009 -0.1513  0.9885
    37 H(1)   Bbb    -0.0012    -0.635    -0.227    -0.212 -0.5212  0.8435  0.1296
              Bcc     0.0035     1.854     0.662     0.619  0.8534  0.5153  0.0781
 
              Baa    -0.0859   -11.520    -4.111    -3.843 -0.2653  0.9517  0.1547
    38 C(13)  Bbb    -0.0821   -11.013    -3.930    -3.673  0.9641  0.2640  0.0294
              Bcc     0.1679    22.533     8.040     7.516  0.0129 -0.1569  0.9875
 
              Baa    -0.0498    -6.683    -2.385    -2.229  0.0550 -0.1434  0.9881
    39 C(13)  Bbb     0.0189     2.538     0.905     0.846  0.0053  0.9897  0.1434
              Bcc     0.0309     4.145     1.479     1.383  0.9985  0.0027 -0.0552
 
              Baa    -0.0027    -1.465    -0.523    -0.489  0.0000 -0.0131  0.9999
    40 H(1)   Bbb    -0.0016    -0.860    -0.307    -0.287  0.0595  0.9981  0.0131
              Bcc     0.0044     2.325     0.830     0.776  0.9982 -0.0595 -0.0008
 
              Baa    -0.0840   -11.277    -4.024    -3.762  0.9674  0.2469 -0.0570
    41 C(13)  Bbb    -0.0805   -10.796    -3.852    -3.601 -0.2426  0.9673  0.0738
              Bcc     0.1645    22.073     7.876     7.363  0.0733 -0.0576  0.9956
 
              Baa    -0.0095    -5.085    -1.815    -1.696  0.9794 -0.1822 -0.0866
    42 H(1)   Bbb    -0.0011    -0.607    -0.217    -0.203  0.0886  0.0025  0.9961
              Bcc     0.0107     5.692     2.031     1.899  0.1813  0.9833 -0.0186
 
              Baa    -0.0007    -0.094    -0.034    -0.031  0.9847 -0.1718 -0.0297
    43 C(13)  Bbb    -0.0006    -0.077    -0.027    -0.026  0.0058 -0.1375  0.9905
              Bcc     0.0013     0.171     0.061     0.057  0.1743  0.9755  0.1344
 
              Baa    -0.0020    -1.069    -0.381    -0.357  0.0537  0.1916  0.9800
    44 H(1)   Bbb    -0.0001    -0.046    -0.016    -0.015  0.9632 -0.2687 -0.0002
              Bcc     0.0021     1.115     0.398     0.372  0.2633  0.9440 -0.1990
 
              Baa    -0.0017    -0.916    -0.327    -0.306 -0.0268 -0.1168  0.9928
    45 H(1)   Bbb    -0.0003    -0.172    -0.061    -0.057  0.9911  0.1263  0.0416
              Bcc     0.0020     1.088     0.388     0.363 -0.1303  0.9851  0.1124
 
              Baa    -0.0020    -1.062    -0.379    -0.354 -0.1228 -0.4237  0.8975
    46 H(1)   Bbb    -0.0001    -0.052    -0.019    -0.017  0.9636 -0.2673  0.0056
              Bcc     0.0021     1.114     0.398     0.372  0.2375  0.8655  0.4411
 
              Baa    -0.0013    -0.174    -0.062    -0.058 -0.0802 -0.1419  0.9866
    47 C(13)  Bbb    -0.0001    -0.008    -0.003    -0.003  0.9787 -0.1988  0.0510
              Bcc     0.0014     0.181     0.065     0.060  0.1889  0.9697  0.1548
 
              Baa    -0.0016    -0.869    -0.310    -0.290  0.0186 -0.4362  0.8997
    48 H(1)   Bbb     0.0002     0.092     0.033     0.031  0.9951  0.0957  0.0258
              Bcc     0.0015     0.777     0.277     0.259 -0.0973  0.8948  0.4358
 
              Baa    -0.0017    -0.887    -0.317    -0.296 -0.0658  0.1746  0.9824
    49 H(1)   Bbb     0.0002     0.120     0.043     0.040  0.9936  0.1016  0.0485
              Bcc     0.0014     0.767     0.274     0.256 -0.0913  0.9794 -0.1802
 
              Baa    -0.0014    -0.766    -0.273    -0.255 -0.0088 -0.1126  0.9936
    50 H(1)   Bbb    -0.0004    -0.218    -0.078    -0.073  0.9273  0.3710  0.0503
              Bcc     0.0018     0.984     0.351     0.328 -0.3743  0.9218  0.1011
 
              Baa    -0.0015    -0.202    -0.072    -0.067 -0.0295 -0.1481  0.9885
    51 C(13)  Bbb     0.0001     0.008     0.003     0.003  0.9758 -0.2184 -0.0036
              Bcc     0.0014     0.194     0.069     0.065  0.2165  0.9646  0.1509
 
              Baa    -0.0014    -0.724    -0.258    -0.241 -0.0002 -0.1418  0.9899
    52 H(1)   Bbb    -0.0004    -0.233    -0.083    -0.078  0.9302  0.3633  0.0522
              Bcc     0.0018     0.957     0.341     0.319 -0.3670  0.9208  0.1319
 
              Baa    -0.0016    -0.828    -0.295    -0.276 -0.0569  0.1440  0.9879
    53 H(1)   Bbb     0.0002     0.112     0.040     0.037  0.9829  0.1816  0.0301
              Bcc     0.0013     0.716     0.256     0.239 -0.1750  0.9728 -0.1518
 
              Baa    -0.0015    -0.815    -0.291    -0.272  0.0564 -0.4428  0.8949
    54 H(1)   Bbb     0.0002     0.092     0.033     0.031  0.9873  0.1580  0.0159
              Bcc     0.0014     0.723     0.258     0.241 -0.1484  0.8826  0.4461
 
              Baa    -0.0009    -0.127    -0.045    -0.042  0.5173 -0.1590  0.8409
    55 C(13)  Bbb    -0.0005    -0.068    -0.024    -0.023  0.8347 -0.1230 -0.5368
              Bcc     0.0015     0.195     0.070     0.065  0.1887  0.9796  0.0691
 
              Baa    -0.0017    -0.905    -0.323    -0.302  0.0032 -0.1695  0.9855
    56 H(1)   Bbb    -0.0004    -0.222    -0.079    -0.074  0.9893  0.1442  0.0215
              Bcc     0.0021     1.127     0.402     0.376 -0.1458  0.9749  0.1681
 
              Baa    -0.0019    -0.998    -0.356    -0.333  0.1101  0.1618  0.9807
    57 H(1)   Bbb    -0.0002    -0.125    -0.045    -0.042  0.9714 -0.2264 -0.0717
              Bcc     0.0021     1.123     0.401     0.375  0.2104  0.9605 -0.1821
 
              Baa    -0.0020    -1.077    -0.384    -0.359 -0.0488 -0.4445  0.8945
    58 H(1)   Bbb     0.0000    -0.021    -0.008    -0.007  0.9788 -0.1998 -0.0458
              Bcc     0.0021     1.098     0.392     0.366  0.1991  0.8732  0.4448
 
              Baa    -0.0302    -4.055    -1.447    -1.353  0.4514  0.4507  0.7701
    59 C(13)  Bbb     0.0122     1.634     0.583     0.545  0.8013  0.1751 -0.5721
              Bcc     0.0180     2.421     0.864     0.808 -0.3927  0.8754 -0.2821
 
              Baa    -0.0602    -8.072    -2.880    -2.692  0.4603  0.6437 -0.6114
    60 C(13)  Bbb    -0.0577    -7.737    -2.761    -2.581  0.8140 -0.5809  0.0012
              Bcc     0.1178    15.808     5.641     5.273  0.3544  0.4982  0.7913
 
              Baa    -0.0035    -0.470    -0.168    -0.157  0.4050  0.3582  0.8412
    61 C(13)  Bbb    -0.0020    -0.271    -0.097    -0.091 -0.3769  0.9037 -0.2033
              Bcc     0.0055     0.742     0.265     0.247  0.8330  0.2347 -0.5010
 
              Baa    -0.0023    -0.304    -0.108    -0.101 -0.2470 -0.5774  0.7782
    62 C(13)  Bbb     0.0004     0.051     0.018     0.017  0.9619 -0.2433  0.1248
              Bcc     0.0019     0.253     0.090     0.085  0.1173  0.7793  0.6156
 
              Baa    -0.0011    -0.154    -0.055    -0.051  0.3444  0.6272  0.6986
    63 C(13)  Bbb    -0.0007    -0.095    -0.034    -0.032 -0.2117  0.7768 -0.5931
              Bcc     0.0019     0.249     0.089     0.083  0.9146 -0.0564 -0.4003
 
              Baa    -0.0015    -0.207    -0.074    -0.069  0.2944  0.3680  0.8820
    64 C(13)  Bbb    -0.0008    -0.106    -0.038    -0.035 -0.3897  0.8889 -0.2408
              Bcc     0.0023     0.313     0.112     0.105  0.8726  0.2728 -0.4051
 
              Baa    -0.0012    -0.620    -0.221    -0.207  0.1615  0.4962  0.8530
    65 H(1)   Bbb    -0.0009    -0.456    -0.163    -0.152  0.7018  0.5500 -0.4528
              Bcc     0.0020     1.075     0.384     0.359  0.6938 -0.6718  0.2594
 
              Baa    -0.0013    -0.700    -0.250    -0.233 -0.2707 -0.5844  0.7649
    66 H(1)   Bbb    -0.0006    -0.338    -0.121    -0.113  0.7799  0.3327  0.5302
              Bcc     0.0019     1.038     0.370     0.346 -0.5644  0.7401  0.3657
 
              Baa    -0.0004    -0.236    -0.084    -0.079  0.3615  0.3584  0.8608
    67 H(1)   Bbb    -0.0002    -0.132    -0.047    -0.044 -0.3906  0.8965 -0.2092
              Bcc     0.0007     0.367     0.131     0.123  0.8466  0.2606 -0.4640
 
              Baa    -0.0006    -0.329    -0.117    -0.110  0.7097  0.3648  0.6027
    68 H(1)   Bbb    -0.0004    -0.212    -0.076    -0.071 -0.2443  0.9298 -0.2752
              Bcc     0.0010     0.541     0.193     0.180 -0.6608  0.0480  0.7490
 
              Baa    -0.0005    -0.264    -0.094    -0.088  0.2515 -0.1298  0.9591
    69 H(1)   Bbb    -0.0004    -0.210    -0.075    -0.070  0.2325  0.9701  0.0703
              Bcc     0.0009     0.473     0.169     0.158  0.9395 -0.2053 -0.2742
 
              Baa    -0.0007    -0.365    -0.130    -0.122  0.0199 -0.3802  0.9247
    70 H(1)   Bbb    -0.0006    -0.306    -0.109    -0.102 -0.1034  0.9191  0.3801
              Bcc     0.0013     0.670     0.239     0.224  0.9944  0.1032  0.0210
 
              Baa    -0.0014    -0.186    -0.066    -0.062  0.3746  0.4911  0.7864
    71 C(13)  Bbb    -0.0006    -0.076    -0.027    -0.025  0.0715  0.8304 -0.5526
              Bcc     0.0020     0.262     0.094     0.087  0.9244 -0.2632 -0.2760
 
              Baa    -0.0014    -0.721    -0.257    -0.240  0.5164  0.4151  0.7490
    72 H(1)   Bbb    -0.0008    -0.450    -0.161    -0.150 -0.6385  0.7695  0.0137
              Bcc     0.0022     1.171     0.418     0.391 -0.5707 -0.4853  0.6624
 
              Baa    -0.0009    -0.469    -0.167    -0.157  0.6895  0.5939  0.4147
    73 H(1)   Bbb    -0.0005    -0.253    -0.090    -0.084 -0.5055  0.8045 -0.3119
              Bcc     0.0014     0.722     0.258     0.241 -0.5188  0.0054  0.8549
 
              Baa    -0.0006    -0.298    -0.106    -0.099  0.3706  0.6102  0.7002
    74 H(1)   Bbb    -0.0002    -0.132    -0.047    -0.044 -0.6569  0.7051 -0.2669
              Bcc     0.0008     0.430     0.153     0.143 -0.6566 -0.3611  0.6622
 
              Baa    -0.0013    -0.173    -0.062    -0.058  0.3592  0.6130  0.7037
    75 C(13)  Bbb     0.0003     0.047     0.017     0.016 -0.1090  0.7765 -0.6207
              Bcc     0.0009     0.126     0.045     0.042  0.9269 -0.1462 -0.3458
 
              Baa    -0.0009    -0.463    -0.165    -0.154 -0.3289  0.4264  0.8426
    76 H(1)   Bbb    -0.0006    -0.336    -0.120    -0.112 -0.4842  0.6899 -0.5381
              Bcc     0.0015     0.799     0.285     0.267  0.8108  0.5850  0.0205
 
              Baa    -0.0004    -0.235    -0.084    -0.078  0.0299  0.1762  0.9839
    77 H(1)   Bbb    -0.0002    -0.105    -0.038    -0.035 -0.5072  0.8509 -0.1370
              Bcc     0.0006     0.341     0.122     0.114  0.8613  0.4949 -0.1148
 
              Baa    -0.0007    -0.381    -0.136    -0.127 -0.0475 -0.0610  0.9970
    78 H(1)   Bbb    -0.0003    -0.164    -0.058    -0.055 -0.5185  0.8546  0.0276
              Bcc     0.0010     0.545     0.194     0.182  0.8537  0.5157  0.0722
 
              Baa    -0.0021    -0.280    -0.100    -0.093 -0.2879  0.6218  0.7284
    79 C(13)  Bbb     0.0004     0.055     0.020     0.018 -0.2079  0.7019 -0.6813
              Bcc     0.0017     0.225     0.080     0.075  0.9348  0.3476  0.0728
 
              Baa    -0.0012    -0.638    -0.227    -0.213  0.5432  0.5318  0.6497
    80 H(1)   Bbb    -0.0007    -0.391    -0.140    -0.130  0.8250 -0.4818 -0.2955
              Bcc     0.0019     1.029     0.367     0.343 -0.1559 -0.6965  0.7004
 
              Baa    -0.0012    -0.652    -0.233    -0.217  0.4534 -0.1295  0.8818
    81 H(1)   Bbb    -0.0004    -0.227    -0.081    -0.076  0.7219 -0.5269 -0.4486
              Bcc     0.0016     0.879     0.313     0.293  0.5227  0.8400 -0.1454
 
              Baa    -0.0017    -0.894    -0.319    -0.298  0.4654  0.4013  0.7889
    82 H(1)   Bbb    -0.0001    -0.075    -0.027    -0.025  0.7531 -0.6478 -0.1148
              Bcc     0.0018     0.969     0.346     0.323  0.4650  0.6476 -0.6037
 
              Baa    -0.0042    -2.229    -0.795    -0.744  0.5375  0.8346  0.1203
    83 H(1)   Bbb    -0.0003    -0.143    -0.051    -0.048 -0.0362 -0.1197  0.9922
              Bcc     0.0044     2.372     0.846     0.791  0.8425 -0.5376 -0.0342
 

 ---------------------------------------------------------------------------------

 No NMR shielding tensors so no spin-rotation constants.
 Leave Link  601 at Mon Apr  3 23:11:04 2006, MaxMem=  131072000 cpu:      15.3
 (Enter /usr/local/gaussian/g03/l9999.exe)
 1\1\GINC-MELLIN\SP\UB3LYP\EPR-II\C37H46(1+,2)\KUPROV\03-Apr-2006\0\\#P
  UB3LYP/EPR-II GUESS=MIX GEOM=CONNECTIVITY SCF=TIGHT\\Carotene cation.
 \\1,2\C\C,1,1.39643226\C,1,1.39985623,2,119.8482067\C,2,1.39065174,1,1
 19.90856677,3,0.004007,0\H,2,1.08539321,1,120.17727038,3,179.99694254,
 0\C,3,1.38836956,1,120.34580312,2,0.00899535,0\H,3,1.08556306,1,119.92
 102664,2,-179.98903536,0\C,4,1.41139875,2,121.11024092,1,-0.00765497,0
 \H,4,1.08670322,2,119.80692774,1,-179.99434151,0\H,6,1.0850483,3,119.1
 8229975,1,179.99437798,0\C,8,1.45181818,4,118.37881084,2,179.98544568,
 0\H,11,1.08764883,8,114.57220129,4,-0.20485761,0\C,11,1.36567501,8,127
 .31290572,4,179.8372286,0\H,13,1.08730673,11,118.99408688,8,-0.0565370
 5,0\C,13,1.4341508,11,125.29762889,8,179.84361802,0\C,15,1.38986583,13
 ,117.65320834,11,-179.73938197,0\H,16,1.0892596,15,116.48535483,13,-0.
 2259551,0\C,16,1.40887795,15,127.46877218,13,179.56990504,0\H,18,1.085
 38406,16,118.81354345,15,-0.085725,0\C,18,1.38710564,16,122.78871069,1
 5,-179.87972913,0\H,20,1.08899758,18,117.27426038,16,-0.25155654,0\C,2
 0,1.41374489,18,126.00131845,16,179.45334147,0\C,22,1.40267476,20,117.
 54068157,18,-179.63916123,0\H,23,1.08937241,22,116.11823668,20,-0.6442
 842,0\C,23,1.397047,22,127.6501709,20,179.07213435,0\H,25,1.08709768,2
 3,119.61323754,22,-0.12691394,0\C,25,1.39626126,23,123.00643822,22,-17
 9.88969567,0\H,27,1.08705163,25,117.28646848,23,-0.3967929,0\C,27,1.39
 673509,25,123.15584884,23,179.49042807,0\H,29,1.08937681,27,116.298369
 03,25,-0.1232932,0\C,29,1.40327052,27,127.5549667,25,180.,0\C,31,1.412
 89711,29,117.61396026,27,179.63302404,0\H,32,1.08898189,31,116.8045006
 9,29,-0.17262836,0\C,32,1.38800398,31,125.85369483,29,-179.95639519,0\
 H,34,1.08530457,32,118.26112864,31,-0.38941575,0\C,34,1.40767102,32,12
 2.99317057,31,179.37964779,0\H,36,1.08925713,34,116.15664082,32,0.1723
 391,0\C,36,1.39111477,34,127.34543595,32,-179.43566779,0\C,38,1.434752
 06,36,117.70101951,34,179.22736324,0\H,39,1.08576454,38,115.90520895,3
 6,0.35877702,0\C,39,1.36888114,38,125.00171616,36,-176.65943027,0\H,41
 ,1.08770874,39,116.49414922,38,3.4886305,0\C,15,1.50785465,13,119.4853
 8654,11,0.19261219,0\H,43,1.0952225,15,110.60118389,13,58.80409153,0\H
 ,43,1.08919756,15,112.92758858,13,179.43750805,0\H,43,1.09534461,15,11
 0.67866612,13,-59.79815379,0\C,22,1.50971008,20,119.98184732,18,0.0891
 3991,0\H,47,1.09537265,22,110.77012769,20,-61.45023839,0\H,47,1.095016
 41,22,110.72957352,20,57.48973131,0\H,47,1.08922819,22,112.79565261,20
 ,177.90257956,0\C,31,1.50994564,29,122.42685558,27,-0.34609758,0\H,51,
 1.08914098,31,112.81046965,29,1.25938813,0\H,51,1.09506267,31,110.7719
 477,29,121.7700742,0\H,51,1.09530752,31,110.73719105,29,-119.26389728,
 0\C,38,1.50805825,36,122.70682945,34,-0.47642598,0\H,55,1.08910721,38,
 112.96099785,36,-1.26311456,0\H,55,1.09566588,38,110.60926602,36,119.3
 0665393,0\H,55,1.09484655,38,110.70967143,36,-122.13429487,0\C,41,1.45
 601161,39,128.62685757,38,178.4515002,0\C,59,1.3681108,41,123.37895368
 ,39,38.55726617,0\C,59,1.55135021,41,114.12974135,39,-144.75781926,0\C
 ,60,1.5141318,59,122.30242428,41,-179.75863824,0\C,61,1.54609991,59,11
 0.63972056,41,164.77485413,0\C,63,1.52478068,61,112.98047145,59,46.828
 92351,0\H,62,1.09678125,60,108.96908864,59,-141.20687286,0\H,62,1.1024
 78,60,107.34823399,59,105.59723671,0\H,63,1.09629704,61,108.62320284,5
 9,170.33537794,0\H,63,1.09843902,61,108.82175593,59,-74.19371944,0\H,6
 4,1.0950243,63,110.65559968,61,178.20243995,0\H,64,1.09609053,63,110.3
 4016748,61,60.72690958,0\C,61,1.54654627,59,110.62121156,41,46.2114905
 1,0\H,71,1.09399979,61,112.66457527,59,-66.23842069,0\H,71,1.09479307,
 61,111.19907553,59,55.08825466,0\H,71,1.09515788,61,109.75809126,59,17
 4.36704799,0\C,61,1.54765805,59,109.59720624,41,-73.8021428,0\H,75,1.0
 9496652,61,111.92767567,59,58.3307943,0\H,75,1.09543085,61,110.2087113
 6,59,177.49922985,0\H,75,1.09326056,61,111.80113678,59,-62.17839553,0\
 C,60,1.50962907,59,124.53793649,41,1.08061272,0\H,79,1.09500192,60,109
 .93322069,59,141.94660626,0\H,79,1.09894125,60,111.1117918,59,-100.881
 35639,0\H,79,1.09042104,60,113.34530339,59,20.73739808,0\H,1,1.0855205
 8,2,120.12953854,4,-179.98726577,0\\Version=IA32L-G03RevC.02\State=2-A
 \HF=-1437.5671981\S2=0.80879\S2-1=0.\S2A=0.752154\RMSD=5.684e-09\Dipol
 e=-1.4821075,-0.2313436,0.2795644\PG=C01 [X(C37H46)]\\@


 WHAT THE SLIME CONTAINS, THE GLOWING REVEALS
 BY THE FLAME'S BRIGHT HUE WHEN YOU IGNITE IT.
   --  LEONARD THURNEYSSER, 1531-1596
 DESCRIBING HIS FLAME PHOTOLYSIS ANALYTIC METHOD
 Job cpu time:  0 days 13 hours  2 minutes 26.4 seconds.
 File lengths (MBytes):  RWF=    833 Int=      0 D2E=      0 Chk=     49 Scr=      1
 Normal termination of Gaussian 03 at Mon Apr  3 23:11:07 2006.
