 Entering Gaussian System, Link 0=g03
 Initial command:
 /usr/local/gaussian/g03/l1.exe /home/hadamard/kuprov/Gau-24485.inp -scrdir=/home/hadamard/kuprov/
 Entering Link 1 = /usr/local/gaussian/g03/l1.exe PID=     24487.
  
 Copyright (c) 1988,1990,1992,1993,1995,1998,2003,2004, Gaussian, Inc.
                  All Rights Reserved.
  
 This is the Gaussian(R) 03 program.  It is based on the
 the Gaussian(R) 98 system (copyright 1998, Gaussian, Inc.),
 the Gaussian(R) 94 system (copyright 1995, Gaussian, Inc.),
 the Gaussian 92(TM) system (copyright 1992, Gaussian, Inc.),
 the Gaussian 90(TM) system (copyright 1990, Gaussian, Inc.),
 the Gaussian 88(TM) system (copyright 1988, Gaussian, Inc.),
 the Gaussian 86(TM) system (copyright 1986, Carnegie Mellon
 University), and the Gaussian 82(TM) system (copyright 1983,
 Carnegie Mellon University). Gaussian is a federally registered
 trademark of Gaussian, Inc.
  
 This software contains proprietary and confidential information,
 including trade secrets, belonging to Gaussian, Inc.
  
 This software is provided under written license and may be
 used, copied, transmitted, or stored only in accord with that
 written license.
  
 The following legend is applicable only to US Government
 contracts under FAR:
  
                    RESTRICTED RIGHTS LEGEND
  
 Use, reproduction and disclosure by the US Government is
 subject to restrictions as set forth in subparagraphs (a)
 and (c) of the Commercial Computer Software - Restricted
 Rights clause in FAR 52.227-19.
  
 Gaussian, Inc.
 340 Quinnipiac St., Bldg. 40, Wallingford CT 06492
  
  
 ---------------------------------------------------------------
 Warning -- This program may not be used in any manner that
 competes with the business of Gaussian, Inc. or will provide
 assistance to any competitor of Gaussian, Inc.  The licensee
 of this program is prohibited from giving any competitor of
 Gaussian, Inc. access to this program.  By using this program,
 the user acknowledges that Gaussian, Inc. is engaged in the
 business of creating and licensing software in the field of
 computational chemistry and represents and warrants to the
 licensee that it is not a competitor of Gaussian, Inc. and that
 it will not use this program in any manner prohibited above.
 ---------------------------------------------------------------
  

 Cite this work as:
 Gaussian 03, Revision C.02,
 M. J. Frisch, G. W. Trucks, H. B. Schlegel, G. E. Scuseria, 
 M. A. Robb, J. R. Cheeseman, J. A. Montgomery, Jr., T. Vreven, 
 K. N. Kudin, J. C. Burant, J. M. Millam, S. S. Iyengar, J. Tomasi, 
 V. Barone, B. Mennucci, M. Cossi, G. Scalmani, N. Rega, 
 G. A. Petersson, H. Nakatsuji, M. Hada, M. Ehara, K. Toyota, 
 R. Fukuda, J. Hasegawa, M. Ishida, T. Nakajima, Y. Honda, O. Kitao, 
 H. Nakai, M. Klene, X. Li, J. E. Knox, H. P. Hratchian, J. B. Cross, 
 C. Adamo, J. Jaramillo, R. Gomperts, R. E. Stratmann, O. Yazyev, 
 A. J. Austin, R. Cammi, C. Pomelli, J. W. Ochterski, P. Y. Ayala, 
 K. Morokuma, G. A. Voth, P. Salvador, J. J. Dannenberg, 
 V. G. Zakrzewski, S. Dapprich, A. D. Daniels, M. C. Strain, 
 O. Farkas, D. K. Malick, A. D. Rabuck, K. Raghavachari, 
 J. B. Foresman, J. V. Ortiz, Q. Cui, A. G. Baboul, S. Clifford, 
 J. Cioslowski, B. B. Stefanov, G. Liu, A. Liashenko, P. Piskorz, 
 I. Komaromi, R. L. Martin, D. J. Fox, T. Keith, M. A. Al-Laham, 
 C. Y. Peng, A. Nanayakkara, M. Challacombe, P. M. W. Gill, 
 B. Johnson, W. Chen, M. W. Wong, C. Gonzalez, and J. A. Pople, 
 Gaussian, Inc., Wallingford CT, 2004.
 
 ******************************************
 Gaussian 03:  AM64L-G03RevC.02 12-Jun-2004
                15-Mar-2006 
 ******************************************
 %chk=cpdyad_hfc.chk
 %mem=1600MB
 %nproc=1
 Will use up to    1 processors via shared memory.
 ----------------------------------------------------------------------
 # ub3lyp/ChkBasis guess=(only,read) geom=checkpoint density=checkpoint
  pop=minimal IOp(6/82=1)
 ----------------------------------------------------------------------
 Warning!  Basis set taken from checkpoint file.
 1/29=2,38=1/1;
 2/40=1/2;
 3/5=7,6=2,11=2,16=1,25=1,30=1,67=1,74=-5/1,2,3;
 4/5=1,7=2/1;
 6/7=2,8=2,9=2,10=2,11=2,12=2,22=10,28=1,82=1/1;
 99/5=2/99;
 ----------------
 CP dyad, cation.
 ----------------
 Z-Matrix taken from the checkpoint file:
 cpdyad_hfc.chk
 Charge =  1 Multiplicity = 2
 C
 C,1,B1
 C,1,B2,2,A1
 C,2,B3,1,A2,3,D1,0
 H,2,B4,1,A3,3,D2,0
 C,3,B5,1,A4,2,D3,0
 H,3,B6,1,A5,2,D4,0
 C,6,B7,3,A6,1,D5,0
 H,4,B8,2,A7,1,D6,0
 H,6,B9,3,A8,1,D7,0
 H,8,B10,6,A9,3,D8,0
 C,8,B11,6,A10,3,D9,0
 C,12,B12,8,A11,6,D10,0
 H,12,B13,8,A12,6,D11,0
 H,12,B14,8,A13,6,D12,0
 C,13,B15,12,A14,8,D13,0
 C,13,B16,12,A15,8,D14,0
 C,16,B17,13,A16,12,D15,0
 N,16,B18,13,A17,12,D16,0
 C,19,B19,16,A18,13,D17,0
 C,17,B20,13,A19,12,D18,0
 C,18,B21,16,A20,13,D19,0
 C,20,B22,19,A21,16,D20,0
 H,21,B23,17,A22,13,D21,0
 H,21,B24,17,A23,13,D22,0
 H,21,B25,17,A24,13,D23,0
 C,22,B26,18,A25,16,D24,0
 N,22,B27,18,A26,16,D25,0
 H,23,B28,20,A27,19,D26,0
 C,23,B29,20,A28,19,D27,0
 C,27,B30,22,A29,18,D28,0
 C,27,B31,22,A30,18,D29,0
 C,28,B32,22,A31,18,D30,0
 N,30,B33,23,A32,20,D31,0
 C,30,B34,23,A33,20,D32,0
 C,31,B35,27,A34,22,D33,0
 H,32,B36,27,A35,22,D34,0
 H,32,B37,27,A36,22,D35,0
 H,32,B38,27,A37,22,D36,0
 C,33,B39,28,A38,22,D37,0
 C,34,B40,30,A39,23,D38,0
 C,35,B41,30,A40,23,D39,0
 C,35,B42,30,A41,23,D40,0
 H,36,B43,31,A42,27,D41,0
 H,36,B44,31,A43,27,D42,0
 H,36,B45,31,A44,27,D43,0
 H,40,B46,33,A45,28,D44,0
 C,40,B47,33,A46,28,D45,0
 C,41,B48,34,A47,30,D46,0
 C,42,B49,35,A48,30,D47,0
 H,43,B50,35,A49,30,D48,0
 H,43,B51,35,A50,30,D49,0
 H,43,B52,35,A51,30,D50,0
 C,48,B53,40,A52,33,D51,0
 N,48,B54,40,A53,33,D52,0
 C,55,B55,48,A54,40,D53,0
 H,50,B56,42,A55,35,D54,0
 H,50,B57,42,A56,35,D55,0
 H,50,B58,42,A57,35,D56,0
 C,54,B59,48,A58,40,D57,0
 C,54,B60,48,A59,40,D58,0
 C,60,B61,54,A60,48,D59,0
 H,61,B62,54,A61,48,D60,0
 H,61,B63,54,A62,48,D61,0
 H,61,B64,54,A63,48,D62,0
 H,62,B65,60,A64,54,D63,0
 H,62,B66,60,A65,54,D64,0
 H,62,B67,60,A66,54,D65,0
 C,49,B68,41,A67,34,D66,0
 C,69,B69,49,A68,41,D67,0
 C,69,B70,49,A69,41,D68,0
 C,70,B71,69,A70,49,D69,0
 H,70,B72,69,A71,49,D70,0
 C,71,B73,69,A72,49,D71,0
 H,71,B74,69,A73,49,D72,0
 C,74,B75,71,A74,69,D73,0
 H,72,B76,70,A75,69,D74,0
 H,74,B77,71,A76,69,D75,0
 H,34,B78,30,A77,23,D76,0
 H,28,B79,22,A78,18,D77,0
 N,76,B80,74,A79,71,D78,0
 H,81,B81,76,A80,74,D79,0
 C,81,B82,76,A81,74,D80,0
 O,83,B83,81,A82,76,D81,0
 C,83,B84,81,A83,76,D82,0
 C,85,B85,83,A84,81,D83,0
 C,85,B86,83,A85,81,D84,0
 C,86,B87,85,A86,83,D85,0
 H,86,B88,85,A87,83,D86,0
 C,87,B89,85,A88,83,D87,0
 H,87,B90,85,A89,83,D88,0
 C,88,B91,86,A90,85,D89,0
 H,88,B92,86,A91,85,D90,0
 H,90,B93,87,A92,85,D91,0
 C,92,B94,88,A93,86,D92,0
 H,95,B95,92,A94,88,D93,0
 C,95,B96,92,A95,88,D94,0
 H,97,B97,95,A96,92,D95,0
 C,97,B98,95,A97,92,D96,0
 C,99,B99,97,A98,95,D97,0
 H,100,B100,99,A99,97,D98,0
 C,100,B101,99,A100,97,D99,0
 H,102,B102,100,A101,99,D100,0
 C,102,B103,100,A102,99,D101,0
 H,104,B104,102,A103,100,D102,0
 C,104,B105,102,A104,100,D103,0
 C,106,B106,104,A105,102,D104,0
 H,107,B107,106,A106,104,D105,0
 C,107,B108,106,A107,104,D106,0
 H,109,B109,107,A108,106,D107,0
 C,109,B110,107,A109,106,D108,0
 H,111,B111,109,A110,107,D109,0
 C,111,B112,109,A111,107,D110,0
 H,113,B113,111,A112,109,D111,0
 C,113,B114,111,A113,109,D112,0
 C,115,B115,113,A114,111,D113,0
 H,116,B116,115,A115,113,D114,0
 C,116,B117,115,A116,113,D115,0
 H,118,B118,116,A117,115,D116,0
 C,118,B119,116,A118,115,D117,0
 H,120,B120,118,A119,116,D118,0
 C,120,B121,118,A120,116,D119,0
 C,122,B122,120,A121,118,D120,0
 H,123,B123,122,A122,120,D121,0
 C,123,B124,122,A123,120,D122,0
 H,125,B125,123,A124,122,D123,0
 C,99,B126,97,A125,95,D124,0
 H,127,B127,99,A126,97,D125,0
 H,127,B128,99,A127,97,D126,0
 H,127,B129,99,A128,97,D127,0
 C,106,B130,104,A129,102,D128,0
 H,131,B131,106,A130,104,D129,0
 H,131,B132,106,A131,104,D130,0
 H,131,B133,106,A132,104,D131,0
 C,115,B134,113,A133,111,D132,0
 H,135,B135,115,A134,113,D133,0
 H,135,B136,115,A135,113,D134,0
 H,135,B137,115,A136,113,D135,0
 C,122,B138,120,A137,118,D136,0
 H,139,B139,122,A138,120,D137,0
 H,139,B140,122,A139,120,D138,0
 H,139,B141,122,A140,120,D139,0
 C,125,B142,123,A141,122,D140,0
 C,143,B143,125,A142,123,D141,0
 C,143,B144,125,A143,123,D142,0
 C,144,B145,143,A144,125,D143,0
 C,145,B146,143,A145,125,D144,0
 C,147,B147,145,A146,143,D145,0
 H,146,B148,144,A147,143,D146,0
 H,146,B149,144,A148,143,D147,0
 H,147,B150,145,A149,143,D148,0
 H,147,B151,145,A150,143,D149,0
 H,148,B152,147,A151,145,D150,0
 H,148,B153,147,A152,145,D151,0
 C,145,B154,143,A153,125,D152,0
 H,155,B155,145,A154,143,D153,0
 H,155,B156,145,A155,143,D154,0
 H,155,B157,145,A156,143,D155,0
 C,145,B158,143,A157,125,D156,0
 H,159,B159,145,A158,143,D157,0
 H,159,B160,145,A159,143,D158,0
 H,159,B161,145,A160,143,D159,0
 C,144,B162,143,A161,125,D160,0
 H,163,B163,144,A162,143,D161,0
 H,163,B164,144,A163,143,D162,0
 H,163,B165,144,A164,143,D163,0
 H,1,B166,2,A165,4,D164,0
      Variables:
 B1=1.39607002
 B2=1.39612804
 B3=1.3957977
 B4=1.08609119
 B5=1.39587438
 B6=1.08608512
 B7=1.40169292
 B8=1.08634719
 B9=1.08639664
 B10=4.09648878
 B11=3.01086254
 B12=1.50119692
 B13=1.09320992
 B14=1.09301019
 B15=1.48462556
 B16=1.36461413
 B17=1.41238558
 B18=1.37643052
 B19=1.34989994
 B20=1.49915212
 B21=1.42026664
 B22=1.40561515
 B23=1.09680085
 B24=1.09143269
 B25=1.09668392
 B26=1.45687477
 B27=1.37166332
 B28=1.08413724
 B29=1.38771251
 B30=1.38071173
 B31=1.5016228
 B32=1.36979749
 B33=1.36998108
 B34=1.4437505
 B35=1.49956358
 B36=1.09140723
 B37=1.09272263
 B38=1.09261599
 B39=1.38777492
 B40=1.3716503
 B41=1.3807736
 B42=1.49959785
 B43=1.09587587
 B44=1.09060148
 B45=1.09616438
 B46=1.08413956
 B47=1.40564259
 B48=1.42046074
 B49=1.50184169
 B50=1.09609932
 B51=1.09067323
 B52=1.09589477
 B53=1.46559662
 B54=1.35006461
 B55=1.37610808
 B56=1.09151069
 B57=1.09269605
 B58=1.092926
 B59=1.36475931
 B60=1.49918025
 B61=1.50140732
 B62=1.09154465
 B63=1.09679442
 B64=1.09662599
 B65=1.09359397
 B66=1.09236859
 B67=1.0930607
 B68=1.49849827
 B69=1.40136752
 B70=1.40051834
 B71=1.39096293
 B72=1.08600493
 B73=1.39384535
 B74=1.08630303
 B75=1.40405325
 B76=1.08785671
 B77=1.08011634
 B78=1.02211214
 B79=1.02210104
 B80=1.40914166
 B81=1.00930455
 B82=1.37892358
 B83=1.22607947
 B84=1.50273264
 B85=1.40214364
 B86=1.40461136
 B87=1.39022834
 B88=1.08644347
 B89=1.38477957
 B90=1.08429273
 B91=1.40949953
 B92=1.08649724
 B93=1.08483731
 B94=1.45632411
 B95=1.0875939
 B96=1.36083571
 B97=1.08766309
 B98=1.44117876
 B99=1.38104115
 B100=1.0896089
 B101=1.41874082
 B102=1.0857242
 B103=1.37822578
 B104=1.08933526
 B105=1.42400249
 B106=1.3922313
 B107=1.08964202
 B108=1.40717328
 B109=1.08733201
 B110=1.38699818
 B111=1.08731703
 B112=1.40613315
 B113=1.08954642
 B114=1.39407347
 B115=1.42153705
 B116=1.08919277
 B117=1.38076833
 B118=1.08551776
 B119=1.41508906
 B120=1.0894614
 B121=1.38450628
 B122=1.44038242
 B123=1.08637375
 B124=1.36443459
 B125=1.08783887
 B126=1.50752421
 B127=1.09572489
 B128=1.08953823
 B129=1.09568814
 B130=1.50912176
 B131=1.09558789
 B132=1.09550638
 B133=1.08946058
 B134=1.50988984
 B135=1.08922428
 B136=1.09535062
 B137=1.09548118
 B138=1.50798498
 B139=1.08929031
 B140=1.09593223
 B141=1.09511247
 B142=1.46093478
 B143=1.36492035
 B144=1.55072039
 B145=1.51499329
 B146=1.54642053
 B147=1.52484979
 B148=1.09704487
 B149=1.10236931
 B150=1.09647125
 B151=1.0985256
 B152=1.09522771
 B153=1.0962786
 B154=1.54632142
 B155=1.09424289
 B156=1.0948183
 B157=1.09542313
 B158=1.54807015
 B159=1.09493262
 B160=1.09555424
 B161=1.09334185
 B162=1.5098739
 B163=1.09555269
 B164=1.09894619
 B165=1.09021069
 B166=1.08581828
 A1=119.69335262
 A2=120.12562295
 A3=120.09745594
 A4=120.1236364
 A5=120.10007816
 A6=120.63303757
 A7=120.0779122
 A8=120.07498841
 A9=91.04659291
 A10=92.18272481
 A11=77.05547449
 A12=69.04244218
 A13=68.09297894
 A14=129.41594133
 A15=125.08386373
 A16=127.15233559
 A17=110.34861356
 A18=106.11190095
 A19=128.97376711
 A20=123.27653961
 A21=127.33954072
 A22=111.56909296
 A23=111.89653004
 A24=111.57527249
 A25=130.5320473
 A26=122.51585849
 A27=114.18425914
 A28=132.64274669
 A29=106.99715007
 A30=128.1757562
 A31=110.94331774
 A32=128.80946263
 A33=124.33737933
 A34=128.37771169
 A35=110.37026195
 A36=112.12771625
 A37=112.04436285
 A38=128.78284593
 A39=110.97223216
 A40=108.22681864
 A41=123.37745091
 A42=111.359434
 A43=111.87867
 A44=111.4491068
 A45=113.15455333
 A46=132.64453665
 A47=122.5218261
 A48=124.76494781
 A49=111.46805911
 A50=111.90258406
 A51=111.33350056
 A52=121.17511598
 A53=127.37533708
 A54=106.15372788
 A55=110.32273499
 A56=112.02509263
 A57=112.23076605
 A58=106.54291385
 A59=124.4776895
 A60=125.07029557
 A61=111.91913221
 A62=111.54214223
 A63=111.58908655
 A64=112.34402845
 A65=110.26953361
 A66=112.28296134
 A67=117.26033816
 A68=121.12023503
 A69=120.98043956
 A70=120.92045712
 A71=119.55270315
 A72=122.03709067
 A73=119.14066783
 A74=119.40900151
 A75=119.58652825
 A76=121.04817664
 A77=129.11384349
 A78=119.90054177
 A79=123.49594665
 A80=114.88710175
 A81=128.57197827
 A82=123.76935428
 A83=115.26666778
 A84=124.39804721
 A85=116.90957163
 A86=120.42302271
 A87=120.87311302
 A88=120.91700259
 A89=118.12066173
 A90=121.37925308
 A91=119.46250153
 A92=118.86772967
 A93=118.76081167
 A94=114.769235
 A95=126.74326969
 A96=118.8768982
 A97=125.79720272
 A98=117.63649375
 A99=116.52762984
 A100=127.88243383
 A101=118.7704979
 A102=122.53289586
 A103=117.32872501
 A104=126.3256347
 A105=117.65056985
 A106=116.23302062
 A107=127.93787591
 A108=119.45806023
 A109=122.91614961
 A110=117.31057512
 A111=123.43618016
 A112=116.07361339
 A113=127.58760561
 A114=117.8914812
 A115=116.59046053
 A116=125.90261266
 A117=118.33030085
 A118=123.09634726
 A119=115.93106698
 A120=127.47081233
 A121=117.86488309
 A122=115.76436573
 A123=125.24564666
 A124=116.76842873
 A125=119.14636833
 A126=110.67172968
 A127=112.81469113
 A128=110.7227727
 A129=119.53606844
 A130=110.76661777
 A131=110.74406471
 A132=112.75911812
 A133=122.61325454
 A134=112.80017198
 A135=110.7852569
 A136=110.73707341
 A137=122.84336505
 A138=112.9055081
 A139=110.70580013
 A140=110.70020515
 A141=128.35164325
 A142=123.40991691
 A143=113.98408252
 A144=122.33632033
 A145=110.72297877
 A146=112.94899055
 A147=109.01107832
 A148=107.63505428
 A149=108.70569219
 A150=108.80255543
 A151=110.63228022
 A152=110.28027586
 A153=110.52984851
 A154=112.64716304
 A155=111.11737811
 A156=109.84605383
 A157=109.70477965
 A158=112.00155873
 A159=110.15491574
 A160=111.78745788
 A161=124.51846036
 A162=109.91372198
 A163=111.15445167
 A164=113.29117899
 A165=120.15497345
 D1=0.02717078
 D2=-179.96298641
 D3=-0.0586588
 D4=179.93826891
 D5=0.08533316
 D6=-179.95456823
 D7=-179.99359877
 D8=91.10946676
 D9=92.70334197
 D10=121.36865434
 D11=-118.30528695
 D12=0.61261354
 D13=-0.52990288
 D14=179.70843839
 D15=0.22000263
 D16=-179.72163354
 D17=-0.10697427
 D18=-0.23746068
 D19=-179.51049477
 D20=-179.92173684
 D21=-119.21739994
 D22=0.88909881
 D23=121.02587045
 D24=-179.91323865
 D25=0.04447789
 D26=-179.88026084
 D27=0.03845258
 D28=-179.91328538
 D29=0.30006985
 D30=-179.93211079
 D31=0.32258502
 D32=-179.5459062
 D33=179.94878456
 D34=178.88529916
 D35=-61.01616538
 D36=58.90892551
 D37=179.32703759
 D38=-179.90587367
 D39=179.73260216
 D40=-0.18496026
 D41=-122.18628689
 D42=-2.09922782
 D43=118.12189412
 D44=-179.77845447
 D45=-0.29405089
 D46=-179.99218164
 D47=-179.30912072
 D48=61.11826753
 D49=-178.58684373
 D50=-58.53960724
 D51=-178.8053832
 D52=0.9171411
 D53=-179.79209711
 D54=2.26962525
 D55=122.14356432
 D56=-117.77976825
 D57=179.6141844
 D58=-0.20699768
 D59=-179.24814675
 D60=179.31925397
 D61=-60.59207821
 D62=59.12861659
 D63=-117.53983834
 D64=2.37236692
 D65=122.27047535
 D66=179.26437257
 D67=92.58203214
 D68=-86.77945145
 D69=-179.25069173
 D70=0.60082873
 D71=179.48177157
 D72=-0.71931701
 D73=-0.27347926
 D74=179.78116589
 D75=179.36137101
 D76=-0.38529412
 D77=-0.22647551
 D78=-179.15219715
 D79=-178.38484404
 D80=-4.80392282
 D81=-2.03829313
 D82=178.54251355
 D83=-24.42288989
 D84=158.01921942
 D85=-178.48550828
 D86=-1.08807733
 D87=179.11130035
 D88=-0.51656272
 D89=-0.06302871
 D90=179.2469918
 D91=179.72795651
 D92=179.91797826
 D93=-1.36138451
 D94=178.71494495
 D95=-0.56138002
 D96=179.27867743
 D97=179.84974491
 D98=-0.48287544
 D99=179.30488886
 D100=-0.38893293
 D101=179.80406979
 D102=-0.41794851
 D103=179.43628716
 D104=179.79167914
 D105=-0.45722074
 D106=179.43880352
 D107=-0.41439789
 D108=179.71084857
 D109=-0.34415974
 D110=179.57971788
 D111=-0.34704329
 D112=179.76467751
 D113=179.52982866
 D114=-0.29648199
 D115=179.88384399
 D116=-0.36811723
 D117=179.39526273
 D118=-0.21875554
 D119=-179.87461718
 D120=179.10857503
 D121=0.194202
 D122=-177.14246013
 D123=3.25092567
 D124=-0.29891438
 D125=59.35353536
 D126=179.99031466
 D127=-59.22877357
 D128=-0.32961264
 D129=-59.98653669
 D130=58.80828151
 D131=179.34604971
 D132=-0.43848656
 D133=0.45622227
 D134=121.06963782
 D135=-120.08069807
 D136=-0.6410242
 D137=-1.54543924
 D138=119.11538275
 D139=-122.34830895
 D140=178.32226317
 D141=40.78512337
 D142=-142.28543235
 D143=-179.78605563
 D144=165.32804705
 D145=46.2068658
 D146=-141.4014491
 D147=105.19580156
 D148=169.78029017
 D149=-74.70721492
 D150=178.00350094
 D151=60.52958056
 D152=46.69086253
 D153=-65.24926081
 D154=55.86667716
 D155=175.18927821
 D156=-73.27211096
 D157=58.5188811
 D158=177.68997783
 D159=-62.0362952
 D160=1.04768312
 D161=139.82409199
 D162=-102.99760202
 D163=18.59341717
 D164=179.99504084
 Recover connectivity data from disk.
 Stoichiometry    C78H83N5O(1+,2)
 Framework group  C1[X(C78H83N5O)]
 Deg. of freedom   495
 Full point group                 C1      NOp   1
 Largest Abelian subgroup         C1      NOp   1
 Largest concise Abelian subgroup C1      NOp   1
                         Standard orientation:                         
 ---------------------------------------------------------------------
 Center     Atomic     Atomic              Coordinates (Angstroms)
 Number     Number      Type              X           Y           Z
 ---------------------------------------------------------------------
    1          6             0      -20.232010    1.832374    1.143381
    2          6             0      -19.317403    2.194241    2.134117
    3          6             0      -19.780442    1.202931   -0.018110
    4          6             0      -17.957871    1.928210    1.963379
    5          1             0      -19.661566    2.683667    3.040543
    6          6             0      -18.420488    0.938051   -0.187901
    7          1             0      -20.486321    0.917656   -0.792664
    8          6             0      -17.494078    1.296792    0.800943
    9          1             0      -17.246937    2.209466    2.735142
   10          1             0      -18.069954    0.448305   -1.092076
   11          1             0      -17.874813   -2.367213    2.592961
   12          6             0      -17.671987   -1.408055    2.111456
   13          6             0      -16.215159   -1.296557    1.766764
   14          1             0      -17.997880   -0.619974    2.795437
   15          1             0      -18.312768   -1.339706    1.228620
   16          6             0      -15.488544   -0.193366    1.089185
   17          6             0      -15.271606   -2.246183    2.031509
   18          6             0      -16.031544    1.021586    0.616030
   19          7             0      -14.153429   -0.504463    0.965704
   20          6             0      -14.000048   -1.724633    1.522381
   21          6             0      -15.434902   -3.575760    2.704574
   22          6             0      -15.257976    2.020650   -0.032523
   23          6             0      -12.811265   -2.465726    1.637837
   24          1             0      -14.831397   -3.642116    3.618002
   25          1             0      -16.471881   -3.763616    2.988493
   26          1             0      -15.122788   -4.399501    2.051312
   27          6             0      -15.646984    3.315493   -0.575237
   28          7             0      -13.911212    1.882793   -0.253164
   29          1             0      -12.932766   -3.427358    2.123486
   30          6             0      -11.503355   -2.211125    1.250157
   31          6             0      -14.507443    3.891981   -1.100092
   32          6             0      -17.009071    3.947585   -0.582289
   33          6             0      -13.404566    2.983387   -0.892185
   34          7             0      -10.993837   -1.105518    0.621768
   35          6             0      -10.401611   -3.121612    1.454091
   36          6             0      -14.364072    5.222752   -1.776246
   37          1             0      -16.967717    4.934021   -1.047481
   38          1             0      -17.737552    3.349433   -1.135075
   39          1             0      -17.408002    4.073410    0.427083
   40          6             0      -12.096560    3.238182   -1.279637
   41          6             0       -9.645630   -1.239987    0.408038
   42          6             0       -9.259884   -2.540161    0.939397
   43          6             0      -10.547845   -4.457903    2.118723
   44          1             0      -13.958981    5.114440   -2.788725
   45          1             0      -15.320462    5.739673   -1.862978
   46          1             0      -13.684760    5.882051   -1.223583
   47          1             0      -11.976037    4.198481   -1.768164
   48          6             0      -10.905641    2.502141   -1.153992
   49          6             0       -8.869178   -0.234619   -0.227624
   50          6             0       -7.899284   -3.175999    0.941877
   51          1             0      -11.233179   -5.109021    1.563929
   52          1             0       -9.593462   -4.980018    2.196935
   53          1             0      -10.947613   -4.356563    3.134056
   54          6             0       -9.630093    3.033789   -1.642153
   55          7             0      -10.751817    1.280432   -0.600422
   56          6             0       -9.413227    0.978738   -0.704494
   57          1             0       -7.949908   -4.178057    1.371659
   58          1             0       -7.488526   -3.268853   -0.066409
   59          1             0       -7.175383   -2.601353    1.525175
   60          6             0       -8.683836    2.090672   -1.363413
   61          6             0       -9.465241    4.367350   -2.306969
   62          6             0       -7.220556    2.218566   -1.674345
   63          1             0       -8.425873    4.561961   -2.577728
   64          1             0      -10.058001    4.434540   -3.227338
   65          1             0       -9.789986    5.186522   -1.654216
   66          1             0       -6.876921    1.455659   -2.378501
   67          1             0       -7.012043    3.194262   -2.119102
   68          1             0       -6.597260    2.123646   -0.781443
   69          6             0       -7.402424   -0.497584   -0.385672
   70          6             0       -6.894034   -1.089587   -1.549675
   71          6             0       -6.497663   -0.170928    0.632245
   72          6             0       -5.533674   -1.345928   -1.685645
   73          1             0       -7.571739   -1.354186   -2.355969
   74          6             0       -5.130634   -0.415486    0.512964
   75          1             0       -6.869672    0.290330    1.542687
   76          6             0       -4.636639   -1.012563   -0.657862
   77          1             0       -5.162964   -1.809602   -2.597244
   78          1             0       -4.445694   -0.147695    1.304037
   79          1             0      -11.476951   -0.259359    0.313014
   80          1             0      -13.428033    1.037178    0.056939
   81          7             0       -3.275395   -1.313997   -0.862392
   82          1             0       -3.060431   -1.718652   -1.761692
   83          6             0       -2.198697   -1.020483   -0.052453
   84          8             0       -2.286423   -0.392260    0.996790
   85          6             0       -0.869436   -1.516365   -0.547803
   86          6             0       -0.703916   -2.600762   -1.421126
   87          6             0        0.274924   -0.869078   -0.053442
   88          6             0        0.568930   -3.009576   -1.802530
   89          1             0       -1.561174   -3.163730   -1.779644
   90          6             0        1.542481   -1.270595   -0.440350
   91          1             0        0.137778   -0.050431    0.644196
   92          6             0        1.723093   -2.353119   -1.329602
   93          1             0        0.679546   -3.859495   -2.470271
   94          1             0        2.403144   -0.744289   -0.041435
   95          6             0        3.028463   -2.830287   -1.764573
   96          1             0        3.001203   -3.696236   -2.422030
   97          6             0        4.239340   -2.306559   -1.430867
   98          1             0        4.273659   -1.435703   -0.780142
   99          6             0        5.521052   -2.804802   -1.862103
  100          6             0        6.648183   -2.138799   -1.422455
  101          1             0        6.482987   -1.272635   -0.782363
  102          6             0        8.005268   -2.446444   -1.699042
  103          1             0        8.229461   -3.305577   -2.323882
  104          6             0        9.050936   -1.698854   -1.201856
  105          1             0        8.800524   -0.839714   -0.580709
  106          6             0       10.437697   -1.939898   -1.417668
  107          6             0       11.345103   -1.062892   -0.829635
  108          1             0       10.918016   -0.245661   -0.249075
  109          6             0       12.750389   -1.102494   -0.890787
  110          1             0       13.239188   -1.898390   -1.447488
  111          6             0       13.558750   -0.164846   -0.265381
  112          1             0       13.064563    0.630860    0.286787
  113          6             0       14.963695   -0.198769   -0.312170
  114          1             0       15.404411   -1.022048   -0.873501
  115          6             0       15.855981    0.695771    0.276952
  116          6             0       17.246895    0.457899    0.105072
  117          1             0       17.523034   -0.419859   -0.477705
  118          6             0       18.269865    1.234725    0.611624
  119          1             0       18.009764    2.114492    1.191888
  120          6             0       19.638576    0.934815    0.413732
  121          1             0       19.850599    0.038477   -0.168119
  122          6             0       20.732257    1.644716    0.879307
  123          6             0       22.044784    1.138621    0.569723
  124          1             0       22.072231    0.225295   -0.017891
  125          6             0       23.220075    1.684270    0.997087
  126          1             0       23.148735    2.539679    1.665353
  127          6             0        5.574323   -4.015721   -2.758466
  128          1             0        5.031025   -3.830307   -3.691773
  129          1             0        6.592117   -4.302652   -3.020877
  130          1             0        5.099542   -4.876927   -2.275310
  131          6             0       10.866075   -3.117606   -2.258468
  132          1             0       10.509638   -4.056951   -1.821551
  133          1             0       10.443532   -3.048603   -3.266848
  134          1             0       11.948246   -3.191182   -2.360531
  135          6             0       15.399725    1.890296    1.079889
  136          1             0       14.315135    1.963166    1.148911
  137          1             0       15.793232    1.845463    2.101131
  138          1             0       15.764725    2.821040    0.632039
  139          6             0       20.601486    2.908060    1.692252
  140          1             0       19.565657    3.208195    1.845649
  141          1             0       21.059146    2.782304    2.680078
  142          1             0       21.119432    3.739158    1.202069
  143          6             0       24.580656    1.211146    0.753564
  144          6             0       25.001711    0.719883   -0.448260
  145          6             0       25.534462    1.384678    1.963884
  146          6             0       26.418040    0.231114   -0.672585
  147          6             0       26.820515    0.547737    1.771494
  148          6             0       27.424340    0.697049    0.379277
  149          1             0       26.745076    0.531502   -1.675741
  150          1             0       26.390909   -0.870608   -0.698865
  151          1             0       27.543994    0.831934    2.544837
  152          1             0       26.582802   -0.511044    1.942473
  153          1             0       28.350150    0.117855    0.296007
  154          1             0       27.694996    1.742869    0.192642
  155          6             0       24.857320    0.890333    3.263196
  156          1             0       23.989355    1.495319    3.542474
  157          1             0       24.524347   -0.147902    3.164079
  158          1             0       25.568881    0.937825    4.094687
  159          6             0       25.900346    2.879692    2.129966
  160          1             0       25.013694    3.505135    2.276754
  161          1             0       26.541300    3.016176    3.007912
  162          1             0       26.432020    3.266812    1.256549
  163          6             0       24.137169    0.620134   -1.682090
  164          1             0       24.718394    0.897378   -2.568402
  165          1             0       23.801189   -0.412879   -1.848476
  166          1             0       23.252671    1.256181   -1.641263
  167          1             0      -21.289733    2.039024    1.275741
 ---------------------------------------------------------------------
 Rotational constants (GHZ):      0.0679964      0.0020759      0.0020495
 Basis read from chk: cpdyad_hfc.chk (5D, 7F)
 There are  2009 symmetry adapted basis functions of A   symmetry.
 Integral buffers will be    131072 words long.
 Raffenetti 2 integral format.
 Two-electron integral symmetry is turned on.
  2009 basis functions,  3351 primitive gaussians,  2093 cartesian basis functions
   297 alpha electrons      296 beta electrons
       nuclear repulsion energy     10776.3950298783 Hartrees.
 NAtoms=  167 NActive=  167 NUniq=  167 SFac= 1.00D+00 NAtFMM=   60 Big=T
 One-electron integrals computed using PRISM.
 NBasis=  2009 RedAO= T  NBF=  2009
 NBsUse=  2009 1.00D-06 NBFU=  2009
 Initial guess read from the checkpoint file:
 cpdyad_hfc.chk
 Initial guess orbital symmetries:
 Alpha Orbitals:
       Occupied  (A) (A) (A) (A) (A) (A) (A) (A) (A) (A) (A) (A)
                 (A) (A) (A) (A) (A) (A) (A) (A) (A) (A) (A) (A)
                 (A) (A) (A) (A) (A) (A) (A) (A) (A) (A) (A) (A)
                 (A) (A) (A) (A) (A) (A) (A) (A) (A) (A) (A) (A)
                 (A) (A) (A) (A) (A) (A) (A) (A) (A) (A) (A) (A)
                 (A) (A) (A) (A) (A) (A) (A) (A) (A) (A) (A) (A)
                 (A) (A) (A) (A) (A) (A) (A) (A) (A) (A) (A) (A)
                 (A) (A) (A) (A) (A) (A) (A) (A) (A) (A) (A) (A)
                 (A) (A) (A) (A) (A) (A) (A) (A) (A) (A) (A) (A)
                 (A) (A) (A) (A) (A) (A) (A) (A) (A) (A) (A) (A)
                 (A) (A) (A) (A) (A) (A) (A) (A) (A) (A) (A) (A)
                 (A) (A) (A) (A) (A) (A) (A) (A) (A) (A) (A) (A)
                 (A) (A) (A) (A) (A) (A) (A) (A) (A) (A) (A) (A)
                 (A) (A) (A) (A) (A) (A) (A) (A) (A) (A) (A) (A)
                 (A) (A) (A) (A) (A) (A) (A) (A) (A) (A) (A) (A)
                 (A) (A) (A) (A) (A) (A) (A) (A) (A) (A) (A) (A)
                 (A) (A) (A) (A) (A) (A) (A) (A) (A) (A) (A) (A)
                 (A) (A) (A) (A) (A) (A) (A) (A) (A) (A) (A) (A)
                 (A) (A) (A) (A) (A) (A) (A) (A) (A) (A) (A) (A)
                 (A) (A) (A) (A) (A) (A) (A) (A) (A) (A) (A) (A)
                 (A) (A) (A) (A) (A) (A) (A) (A) (A) (A) (A) (A)
                 (A) (A) (A) (A) (A) (A) (A) (A) (A) (A) (A) (A)
                 (A) (A) (A) (A) (A) (A) (A) (A) (A) (A) (A) (A)
                 (A) (A) (A) (A) (A) (A) (A) (A) (A) (A) (A) (A)
                 (A) (A) (A) (A) (A) (A) (A) (A) (A)
       Virtual   (A) (A) (A) (A) (A) (A) (A) (A) (A) (A) (A) (A)
                 (A) (A) (A) (A) (A) (A) (A) (A) (A) (A) (A) (A)
                 (A) (A) (A) (A) (A) (A) (A) (A) (A) (A) (A) (A)
                 (A) (A) (A) (A) (A) (A) (A) (A) (A) (A) (A) (A)
                 (A) (A) (A) (A) (A) (A) (A) (A) (A) (A) (A) (A)
                 (A) (A) (A) (A) (A) (A) (A) (A) (A) (A) (A) (A)
                 (A) (A) (A) (A) (A) (A) (A) (A) (A) (A) (A) (A)
                 (A) (A) (A) (A) (A) (A) (A) (A) (A) (A) (A) (A)
                 (A) (A) (A) (A) (A) (A) (A) (A) (A) (A) (A) (A)
                 (A) (A) (A) (A) (A) (A) (A) (A) (A) (A) (A) (A)
                 (A) (A) (A) (A) (A) (A) (A) (A) (A) (A) (A) (A)
                 (A) (A) (A) (A) (A) (A) (A) (A) (A) (A) (A) (A)
                 (A) (A) (A) (A) (A) (A) (A) (A) (A) (A) (A) (A)
                 (A) (A) (A) (A) (A) (A) (A) (A) (A) (A) (A) (A)
                 (A) (A) (A) (A) (A) (A) (A) (A) (A) (A) (A) (A)
                 (A) (A) (A) (A) (A) (A) (A) (A) (A) (A) (A) (A)
                 (A) (A) (A) (A) (A) (A) (A) (A) (A) (A) (A) (A)
                 (A) (A) (A) (A) (A) (A) (A) (A) (A) (A) (A) (A)
                 (A) (A) (A) (A) (A) (A) (A) (A) (A) (A) (A) (A)
                 (A) (A) (A) (A) (A) (A) (A) (A) (A) (A) (A) (A)
                 (A) (A) (A) (A) (A) (A) (A) (A) (A) (A) (A) (A)
                 (A) (A) (A) (A) (A) (A) (A) (A) (A) (A) (A) (A)
                 (A) (A) (A) (A) (A) (A) (A) (A) (A) (A) (A) (A)
                 (A) (A) (A) (A) (A) (A) (A) (A) (A) (A) (A) (A)
                 (A) (A) (A) (A) (A) (A) (A) (A) (A) (A) (A) (A)
                 (A) (A) (A) (A) (A) (A) (A) (A) (A) (A) (A) (A)
                 (A) (A) (A) (A) (A) (A) (A) (A) (A) (A) (A) (A)
                 (A) (A) (A) (A) (A) (A) (A) (A) (A) (A) (A) (A)
                 (A) (A) (A) (A) (A) (A) (A) (A) (A) (A) (A) (A)
                 (A) (A) (A) (A) (A) (A) (A) (A) (A) (A) (A) (A)
                 (A) (A) (A) (A) (A) (A) (A) (A) (A) (A) (A) (A)
                 (A) (A) (A) (A) (A) (A) (A) (A) (A) (A) (A) (A)
                 (A) (A) (A) (A) (A) (A) (A) (A) (A) (A) (A) (A)
                 (A) (A) (A) (A) (A) (A) (A) (A) (A) (A) (A) (A)
                 (A) (A) (A) (A) (A) (A) (A) (A) (A) (A) (A) (A)
                 (A) (A) (A) (A) (A) (A) (A) (A) (A) (A) (A) (A)
                 (A) (A) (A) (A) (A) (A) (A) (A) (A) (A) (A) (A)
                 (A) (A) (A) (A) (A) (A) (A) (A) (A) (A) (A) (A)
                 (A) (A) (A) (A) (A) (A) (A) (A) (A) (A) (A) (A)
                 (A) (A) (A) (A) (A) (A) (A) (A) (A) (A) (A) (A)
                 (A) (A) (A) (A) (A) (A) (A) (A) (A) (A) (A) (A)
                 (A) (A) (A) (A) (A) (A) (A) (A) (A) (A) (A) (A)
                 (A) (A) (A) (A) (A) (A) (A) (A) (A) (A) (A) (A)
                 (A) (A) (A) (A) (A) (A) (A) (A) (A) (A) (A) (A)
                 (A) (A) (A) (A) (A) (A) (A) (A) (A) (A) (A) (A)
                 (A) (A) (A) (A) (A) (A) (A) (A) (A) (A) (A) (A)
                 (A) (A) (A) (A) (A) (A) (A) (A) (A) (A) (A) (A)
                 (A) (A) (A) (A) (A) (A) (A) (A) (A) (A) (A) (A)
                 (A) (A) (A) (A) (A) (A) (A) (A) (A) (A) (A) (A)
                 (A) (A) (A) (A) (A) (A) (A) (A) (A) (A) (A) (A)
                 (A) (A) (A) (A) (A) (A) (A) (A) (A) (A) (A) (A)
                 (A) (A) (A) (A) (A) (A) (A) (A) (A) (A) (A) (A)
                 (A) (A) (A) (A) (A) (A) (A) (A) (A) (A) (A) (A)
                 (A) (A) (A) (A) (A) (A) (A) (A) (A) (A) (A) (A)
                 (A) (A) (A) (A) (A) (A) (A) (A) (A) (A) (A) (A)
                 (A) (A) (A) (A) (A) (A) (A) (A) (A) (A) (A) (A)
                 (A) (A) (A) (A) (A) (A) (A) (A) (A) (A) (A) (A)
                 (A) (A) (A) (A) (A) (A) (A) (A) (A) (A) (A) (A)
                 (A) (A) (A) (A) (A) (A) (A) (A) (A) (A) (A) (A)
                 (A) (A) (A) (A) (A) (A) (A) (A) (A) (A) (A) (A)
                 (A) (A) (A) (A) (A) (A) (A) (A) (A) (A) (A) (A)
                 (A) (A) (A) (A) (A) (A) (A) (A) (A) (A) (A) (A)
                 (A) (A) (A) (A) (A) (A) (A) (A) (A) (A) (A) (A)
                 (A) (A) (A) (A) (A) (A) (A) (A) (A) (A) (A) (A)
                 (A) (A) (A) (A) (A) (A) (A) (A) (A) (A) (A) (A)
                 (A) (A) (A) (A) (A) (A) (A) (A) (A) (A) (A) (A)
                 (A) (A) (A) (A) (A) (A) (A) (A) (A) (A) (A) (A)
                 (A) (A) (A) (A) (A) (A) (A) (A) (A) (A) (A) (A)
                 (A) (A) (A) (A) (A) (A) (A) (A) (A) (A) (A) (A)
                 (A) (A) (A) (A) (A) (A) (A) (A) (A) (A) (A) (A)
                 (A) (A) (A) (A) (A) (A) (A) (A) (A) (A) (A) (A)
                 (A) (A) (A) (A) (A) (A) (A) (A) (A) (A) (A) (A)
                 (A) (A) (A) (A) (A) (A) (A) (A) (A) (A) (A) (A)
                 (A) (A) (A) (A) (A) (A) (A) (A) (A) (A) (A) (A)
                 (A) (A) (A) (A) (A) (A) (A) (A) (A) (A) (A) (A)
                 (A) (A) (A) (A) (A) (A) (A) (A) (A) (A) (A) (A)
                 (A) (A) (A) (A) (A) (A) (A) (A) (A) (A) (A) (A)
                 (A) (A) (A) (A) (A) (A) (A) (A) (A) (A) (A) (A)
                 (A) (A) (A) (A) (A) (A) (A) (A) (A) (A) (A) (A)
                 (A) (A) (A) (A) (A) (A) (A) (A) (A) (A) (A) (A)
                 (A) (A) (A) (A) (A) (A) (A) (A) (A) (A) (A) (A)
                 (A) (A) (A) (A) (A) (A) (A) (A) (A) (A) (A) (A)
                 (A) (A) (A) (A) (A) (A) (A) (A) (A) (A) (A) (A)
                 (A) (A) (A) (A) (A) (A) (A) (A) (A) (A) (A) (A)
                 (A) (A) (A) (A) (A) (A) (A) (A) (A) (A) (A) (A)
                 (A) (A) (A) (A) (A) (A) (A) (A) (A) (A) (A) (A)
                 (A) (A) (A) (A) (A) (A) (A) (A) (A) (A) (A) (A)
                 (A) (A) (A) (A) (A) (A) (A) (A) (A) (A) (A) (A)
                 (A) (A) (A) (A) (A) (A) (A) (A) (A) (A) (A) (A)
                 (A) (A) (A) (A) (A) (A) (A) (A) (A) (A) (A) (A)
                 (A) (A) (A) (A) (A) (A) (A) (A) (A) (A) (A) (A)
                 (A) (A) (A) (A) (A) (A) (A) (A) (A) (A) (A) (A)
                 (A) (A) (A) (A) (A) (A) (A) (A) (A) (A) (A) (A)
                 (A) (A) (A) (A) (A) (A) (A) (A) (A) (A) (A) (A)
                 (A) (A) (A) (A) (A) (A) (A) (A) (A) (A) (A) (A)
                 (A) (A) (A) (A) (A) (A) (A) (A) (A) (A) (A) (A)
                 (A) (A) (A) (A) (A) (A) (A) (A) (A) (A) (A) (A)
                 (A) (A) (A) (A) (A) (A) (A) (A) (A) (A) (A) (A)
                 (A) (A) (A) (A) (A) (A) (A) (A) (A) (A) (A) (A)
                 (A) (A) (A) (A) (A) (A) (A) (A) (A) (A) (A) (A)
                 (A) (A) (A) (A) (A) (A) (A) (A) (A) (A) (A) (A)
                 (A) (A) (A) (A) (A) (A) (A) (A) (A) (A) (A) (A)
                 (A) (A) (A) (A) (A) (A) (A) (A) (A) (A) (A) (A)
                 (A) (A) (A) (A) (A) (A) (A) (A) (A) (A) (A) (A)
                 (A) (A) (A) (A) (A) (A) (A) (A) (A) (A) (A) (A)
                 (A) (A) (A) (A) (A) (A) (A) (A) (A) (A) (A) (A)
                 (A) (A) (A) (A) (A) (A) (A) (A) (A) (A) (A) (A)
                 (A) (A) (A) (A) (A) (A) (A) (A) (A) (A) (A) (A)
                 (A) (A) (A) (A) (A) (A) (A) (A) (A) (A) (A) (A)
                 (A) (A) (A) (A) (A) (A) (A) (A) (A) (A) (A) (A)
                 (A) (A) (A) (A) (A) (A) (A) (A) (A) (A) (A) (A)
                 (A) (A) (A) (A) (A) (A) (A) (A) (A) (A) (A) (A)
                 (A) (A) (A) (A) (A) (A) (A) (A) (A) (A) (A) (A)
                 (A) (A) (A) (A) (A) (A) (A) (A) (A) (A) (A) (A)
                 (A) (A) (A) (A) (A) (A) (A) (A) (A) (A) (A) (A)
                 (A) (A) (A) (A) (A) (A) (A) (A) (A) (A) (A) (A)
                 (A) (A) (A) (A) (A) (A) (A) (A) (A) (A) (A) (A)
                 (A) (A) (A) (A) (A) (A) (A) (A) (A) (A) (A) (A)
                 (A) (A) (A) (A) (A) (A) (A) (A) (A) (A) (A) (A)
                 (A) (A) (A) (A) (A) (A) (A) (A) (A) (A) (A) (A)
                 (A) (A) (A) (A) (A) (A) (A) (A) (A) (A) (A) (A)
                 (A) (A) (A) (A) (A) (A) (A) (A) (A) (A) (A) (A)
                 (A) (A) (A) (A) (A) (A) (A) (A) (A) (A) (A) (A)
                 (A) (A) (A) (A) (A) (A) (A) (A) (A) (A) (A) (A)
                 (A) (A) (A) (A) (A) (A) (A) (A) (A) (A) (A) (A)
                 (A) (A) (A) (A) (A) (A) (A) (A) (A) (A) (A) (A)
                 (A) (A) (A) (A) (A) (A) (A) (A) (A) (A) (A) (A)
                 (A) (A) (A) (A) (A) (A) (A) (A) (A) (A) (A) (A)
                 (A) (A) (A) (A) (A) (A) (A) (A) (A) (A) (A) (A)
                 (A) (A) (A) (A) (A) (A) (A) (A) (A) (A) (A) (A)
                 (A) (A) (A) (A) (A) (A) (A) (A) (A) (A) (A) (A)
                 (A) (A) (A) (A) (A) (A) (A) (A) (A) (A) (A) (A)
                 (A) (A) (A) (A) (A) (A) (A) (A) (A) (A) (A) (A)
                 (A) (A) (A) (A) (A) (A) (A) (A) (A) (A) (A) (A)
                 (A) (A) (A) (A) (A) (A) (A) (A) (A) (A) (A) (A)
                 (A) (A) (A) (A) (A) (A) (A) (A) (A) (A) (A) (A)
                 (A) (A) (A) (A) (A) (A) (A) (A) (A) (A) (A) (A)
                 (A) (A) (A) (A) (A) (A) (A) (A) (A) (A) (A) (A)
                 (A) (A) (A) (A) (A) (A) (A) (A) (A) (A) (A) (A)
                 (A) (A) (A) (A) (A) (A) (A) (A) (A) (A) (A) (A)
                 (A) (A) (A) (A) (A) (A) (A) (A) (A) (A) (A) (A)
                 (A) (A) (A) (A) (A) (A) (A) (A) (A) (A) (A) (A)
                 (A) (A) (A) (A) (A) (A) (A) (A)
 Beta  Orbitals:
       Occupied  (A) (A) (A) (A) (A) (A) (A) (A) (A) (A) (A) (A)
                 (A) (A) (A) (A) (A) (A) (A) (A) (A) (A) (A) (A)
                 (A) (A) (A) (A) (A) (A) (A) (A) (A) (A) (A) (A)
                 (A) (A) (A) (A) (A) (A) (A) (A) (A) (A) (A) (A)
                 (A) (A) (A) (A) (A) (A) (A) (A) (A) (A) (A) (A)
                 (A) (A) (A) (A) (A) (A) (A) (A) (A) (A) (A) (A)
                 (A) (A) (A) (A) (A) (A) (A) (A) (A) (A) (A) (A)
                 (A) (A) (A) (A) (A) (A) (A) (A) (A) (A) (A) (A)
                 (A) (A) (A) (A) (A) (A) (A) (A) (A) (A) (A) (A)
                 (A) (A) (A) (A) (A) (A) (A) (A) (A) (A) (A) (A)
                 (A) (A) (A) (A) (A) (A) (A) (A) (A) (A) (A) (A)
                 (A) (A) (A) (A) (A) (A) (A) (A) (A) (A) (A) (A)
                 (A) (A) (A) (A) (A) (A) (A) (A) (A) (A) (A) (A)
                 (A) (A) (A) (A) (A) (A) (A) (A) (A) (A) (A) (A)
                 (A) (A) (A) (A) (A) (A) (A) (A) (A) (A) (A) (A)
                 (A) (A) (A) (A) (A) (A) (A) (A) (A) (A) (A) (A)
                 (A) (A) (A) (A) (A) (A) (A) (A) (A) (A) (A) (A)
                 (A) (A) (A) (A) (A) (A) (A) (A) (A) (A) (A) (A)
                 (A) (A) (A) (A) (A) (A) (A) (A) (A) (A) (A) (A)
                 (A) (A) (A) (A) (A) (A) (A) (A) (A) (A) (A) (A)
                 (A) (A) (A) (A) (A) (A) (A) (A) (A) (A) (A) (A)
                 (A) (A) (A) (A) (A) (A) (A) (A) (A) (A) (A) (A)
                 (A) (A) (A) (A) (A) (A) (A) (A) (A) (A) (A) (A)
                 (A) (A) (A) (A) (A) (A) (A) (A) (A) (A) (A) (A)
                 (A) (A) (A) (A) (A) (A) (A) (A)
       Virtual   (A) (A) (A) (A) (A) (A) (A) (A) (A) (A) (A) (A)
                 (A) (A) (A) (A) (A) (A) (A) (A) (A) (A) (A) (A)
                 (A) (A) (A) (A) (A) (A) (A) (A) (A) (A) (A) (A)
                 (A) (A) (A) (A) (A) (A) (A) (A) (A) (A) (A) (A)
                 (A) (A) (A) (A) (A) (A) (A) (A) (A) (A) (A) (A)
                 (A) (A) (A) (A) (A) (A) (A) (A) (A) (A) (A) (A)
                 (A) (A) (A) (A) (A) (A) (A) (A) (A) (A) (A) (A)
                 (A) (A) (A) (A) (A) (A) (A) (A) (A) (A) (A) (A)
                 (A) (A) (A) (A) (A) (A) (A) (A) (A) (A) (A) (A)
                 (A) (A) (A) (A) (A) (A) (A) (A) (A) (A) (A) (A)
                 (A) (A) (A) (A) (A) (A) (A) (A) (A) (A) (A) (A)
                 (A) (A) (A) (A) (A) (A) (A) (A) (A) (A) (A) (A)
                 (A) (A) (A) (A) (A) (A) (A) (A) (A) (A) (A) (A)
                 (A) (A) (A) (A) (A) (A) (A) (A) (A) (A) (A) (A)
                 (A) (A) (A) (A) (A) (A) (A) (A) (A) (A) (A) (A)
                 (A) (A) (A) (A) (A) (A) (A) (A) (A) (A) (A) (A)
                 (A) (A) (A) (A) (A) (A) (A) (A) (A) (A) (A) (A)
                 (A) (A) (A) (A) (A) (A) (A) (A) (A) (A) (A) (A)
                 (A) (A) (A) (A) (A) (A) (A) (A) (A) (A) (A) (A)
                 (A) (A) (A) (A) (A) (A) (A) (A) (A) (A) (A) (A)
                 (A) (A) (A) (A) (A) (A) (A) (A) (A) (A) (A) (A)
                 (A) (A) (A) (A) (A) (A) (A) (A) (A) (A) (A) (A)
                 (A) (A) (A) (A) (A) (A) (A) (A) (A) (A) (A) (A)
                 (A) (A) (A) (A) (A) (A) (A) (A) (A) (A) (A) (A)
                 (A) (A) (A) (A) (A) (A) (A) (A) (A) (A) (A) (A)
                 (A) (A) (A) (A) (A) (A) (A) (A) (A) (A) (A) (A)
                 (A) (A) (A) (A) (A) (A) (A) (A) (A) (A) (A) (A)
                 (A) (A) (A) (A) (A) (A) (A) (A) (A) (A) (A) (A)
                 (A) (A) (A) (A) (A) (A) (A) (A) (A) (A) (A) (A)
                 (A) (A) (A) (A) (A) (A) (A) (A) (A) (A) (A) (A)
                 (A) (A) (A) (A) (A) (A) (A) (A) (A) (A) (A) (A)
                 (A) (A) (A) (A) (A) (A) (A) (A) (A) (A) (A) (A)
                 (A) (A) (A) (A) (A) (A) (A) (A) (A) (A) (A) (A)
                 (A) (A) (A) (A) (A) (A) (A) (A) (A) (A) (A) (A)
                 (A) (A) (A) (A) (A) (A) (A) (A) (A) (A) (A) (A)
                 (A) (A) (A) (A) (A) (A) (A) (A) (A) (A) (A) (A)
                 (A) (A) (A) (A) (A) (A) (A) (A) (A) (A) (A) (A)
                 (A) (A) (A) (A) (A) (A) (A) (A) (A) (A) (A) (A)
                 (A) (A) (A) (A) (A) (A) (A) (A) (A) (A) (A) (A)
                 (A) (A) (A) (A) (A) (A) (A) (A) (A) (A) (A) (A)
                 (A) (A) (A) (A) (A) (A) (A) (A) (A) (A) (A) (A)
                 (A) (A) (A) (A) (A) (A) (A) (A) (A) (A) (A) (A)
                 (A) (A) (A) (A) (A) (A) (A) (A) (A) (A) (A) (A)
                 (A) (A) (A) (A) (A) (A) (A) (A) (A) (A) (A) (A)
                 (A) (A) (A) (A) (A) (A) (A) (A) (A) (A) (A) (A)
                 (A) (A) (A) (A) (A) (A) (A) (A) (A) (A) (A) (A)
                 (A) (A) (A) (A) (A) (A) (A) (A) (A) (A) (A) (A)
                 (A) (A) (A) (A) (A) (A) (A) (A) (A) (A) (A) (A)
                 (A) (A) (A) (A) (A) (A) (A) (A) (A) (A) (A) (A)
                 (A) (A) (A) (A) (A) (A) (A) (A) (A) (A) (A) (A)
                 (A) (A) (A) (A) (A) (A) (A) (A) (A) (A) (A) (A)
                 (A) (A) (A) (A) (A) (A) (A) (A) (A) (A) (A) (A)
                 (A) (A) (A) (A) (A) (A) (A) (A) (A) (A) (A) (A)
                 (A) (A) (A) (A) (A) (A) (A) (A) (A) (A) (A) (A)
                 (A) (A) (A) (A) (A) (A) (A) (A) (A) (A) (A) (A)
                 (A) (A) (A) (A) (A) (A) (A) (A) (A) (A) (A) (A)
                 (A) (A) (A) (A) (A) (A) (A) (A) (A) (A) (A) (A)
                 (A) (A) (A) (A) (A) (A) (A) (A) (A) (A) (A) (A)
                 (A) (A) (A) (A) (A) (A) (A) (A) (A) (A) (A) (A)
                 (A) (A) (A) (A) (A) (A) (A) (A) (A) (A) (A) (A)
                 (A) (A) (A) (A) (A) (A) (A) (A) (A) (A) (A) (A)
                 (A) (A) (A) (A) (A) (A) (A) (A) (A) (A) (A) (A)
                 (A) (A) (A) (A) (A) (A) (A) (A) (A) (A) (A) (A)
                 (A) (A) (A) (A) (A) (A) (A) (A) (A) (A) (A) (A)
                 (A) (A) (A) (A) (A) (A) (A) (A) (A) (A) (A) (A)
                 (A) (A) (A) (A) (A) (A) (A) (A) (A) (A) (A) (A)
                 (A) (A) (A) (A) (A) (A) (A) (A) (A) (A) (A) (A)
                 (A) (A) (A) (A) (A) (A) (A) (A) (A) (A) (A) (A)
                 (A) (A) (A) (A) (A) (A) (A) (A) (A) (A) (A) (A)
                 (A) (A) (A) (A) (A) (A) (A) (A) (A) (A) (A) (A)
                 (A) (A) (A) (A) (A) (A) (A) (A) (A) (A) (A) (A)
                 (A) (A) (A) (A) (A) (A) (A) (A) (A) (A) (A) (A)
                 (A) (A) (A) (A) (A) (A) (A) (A) (A) (A) (A) (A)
                 (A) (A) (A) (A) (A) (A) (A) (A) (A) (A) (A) (A)
                 (A) (A) (A) (A) (A) (A) (A) (A) (A) (A) (A) (A)
                 (A) (A) (A) (A) (A) (A) (A) (A) (A) (A) (A) (A)
                 (A) (A) (A) (A) (A) (A) (A) (A) (A) (A) (A) (A)
                 (A) (A) (A) (A) (A) (A) (A) (A) (A) (A) (A) (A)
                 (A) (A) (A) (A) (A) (A) (A) (A) (A) (A) (A) (A)
                 (A) (A) (A) (A) (A) (A) (A) (A) (A) (A) (A) (A)
                 (A) (A) (A) (A) (A) (A) (A) (A) (A) (A) (A) (A)
                 (A) (A) (A) (A) (A) (A) (A) (A) (A) (A) (A) (A)
                 (A) (A) (A) (A) (A) (A) (A) (A) (A) (A) (A) (A)
                 (A) (A) (A) (A) (A) (A) (A) (A) (A) (A) (A) (A)
                 (A) (A) (A) (A) (A) (A) (A) (A) (A) (A) (A) (A)
                 (A) (A) (A) (A) (A) (A) (A) (A) (A) (A) (A) (A)
                 (A) (A) (A) (A) (A) (A) (A) (A) (A) (A) (A) (A)
                 (A) (A) (A) (A) (A) (A) (A) (A) (A) (A) (A) (A)
                 (A) (A) (A) (A) (A) (A) (A) (A) (A) (A) (A) (A)
                 (A) (A) (A) (A) (A) (A) (A) (A) (A) (A) (A) (A)
                 (A) (A) (A) (A) (A) (A) (A) (A) (A) (A) (A) (A)
                 (A) (A) (A) (A) (A) (A) (A) (A) (A) (A) (A) (A)
                 (A) (A) (A) (A) (A) (A) (A) (A) (A) (A) (A) (A)
                 (A) (A) (A) (A) (A) (A) (A) (A) (A) (A) (A) (A)
                 (A) (A) (A) (A) (A) (A) (A) (A) (A) (A) (A) (A)
                 (A) (A) (A) (A) (A) (A) (A) (A) (A) (A) (A) (A)
                 (A) (A) (A) (A) (A) (A) (A) (A) (A) (A) (A) (A)
                 (A) (A) (A) (A) (A) (A) (A) (A) (A) (A) (A) (A)
                 (A) (A) (A) (A) (A) (A) (A) (A) (A) (A) (A) (A)
                 (A) (A) (A) (A) (A) (A) (A) (A) (A) (A) (A) (A)
                 (A) (A) (A) (A) (A) (A) (A) (A) (A) (A) (A) (A)
                 (A) (A) (A) (A) (A) (A) (A) (A) (A) (A) (A) (A)
                 (A) (A) (A) (A) (A) (A) (A) (A) (A) (A) (A) (A)
                 (A) (A) (A) (A) (A) (A) (A) (A) (A) (A) (A) (A)
                 (A) (A) (A) (A) (A) (A) (A) (A) (A) (A) (A) (A)
                 (A) (A) (A) (A) (A) (A) (A) (A) (A) (A) (A) (A)
                 (A) (A) (A) (A) (A) (A) (A) (A) (A) (A) (A) (A)
                 (A) (A) (A) (A) (A) (A) (A) (A) (A) (A) (A) (A)
                 (A) (A) (A) (A) (A) (A) (A) (A) (A) (A) (A) (A)
                 (A) (A) (A) (A) (A) (A) (A) (A) (A) (A) (A) (A)
                 (A) (A) (A) (A) (A) (A) (A) (A) (A) (A) (A) (A)
                 (A) (A) (A) (A) (A) (A) (A) (A) (A) (A) (A) (A)
                 (A) (A) (A) (A) (A) (A) (A) (A) (A) (A) (A) (A)
                 (A) (A) (A) (A) (A) (A) (A) (A) (A) (A) (A) (A)
                 (A) (A) (A) (A) (A) (A) (A) (A) (A) (A) (A) (A)
                 (A) (A) (A) (A) (A) (A) (A) (A) (A) (A) (A) (A)
                 (A) (A) (A) (A) (A) (A) (A) (A) (A) (A) (A) (A)
                 (A) (A) (A) (A) (A) (A) (A) (A) (A) (A) (A) (A)
                 (A) (A) (A) (A) (A) (A) (A) (A) (A) (A) (A) (A)
                 (A) (A) (A) (A) (A) (A) (A) (A) (A) (A) (A) (A)
                 (A) (A) (A) (A) (A) (A) (A) (A) (A) (A) (A) (A)
                 (A) (A) (A) (A) (A) (A) (A) (A) (A) (A) (A) (A)
                 (A) (A) (A) (A) (A) (A) (A) (A) (A) (A) (A) (A)
                 (A) (A) (A) (A) (A) (A) (A) (A) (A) (A) (A) (A)
                 (A) (A) (A) (A) (A) (A) (A) (A) (A) (A) (A) (A)
                 (A) (A) (A) (A) (A) (A) (A) (A) (A) (A) (A) (A)
                 (A) (A) (A) (A) (A) (A) (A) (A) (A) (A) (A) (A)
                 (A) (A) (A) (A) (A) (A) (A) (A) (A) (A) (A) (A)
                 (A) (A) (A) (A) (A) (A) (A) (A) (A) (A) (A) (A)
                 (A) (A) (A) (A) (A) (A) (A) (A) (A) (A) (A) (A)
                 (A) (A) (A) (A) (A) (A) (A) (A) (A) (A) (A) (A)
                 (A) (A) (A) (A) (A) (A) (A) (A) (A) (A) (A) (A)
                 (A) (A) (A) (A) (A) (A) (A) (A) (A) (A) (A) (A)
                 (A) (A) (A) (A) (A) (A) (A) (A) (A) (A) (A) (A)
                 (A) (A) (A) (A) (A) (A) (A) (A) (A) (A) (A) (A)
                 (A) (A) (A) (A) (A) (A) (A) (A) (A) (A) (A) (A)
                 (A) (A) (A) (A) (A) (A) (A) (A) (A) (A) (A) (A)
                 (A) (A) (A) (A) (A) (A) (A) (A) (A) (A) (A) (A)
                 (A) (A) (A) (A) (A) (A) (A) (A) (A) (A) (A) (A)
                 (A) (A) (A) (A) (A) (A) (A) (A) (A) (A) (A) (A)
                 (A) (A) (A) (A) (A) (A) (A) (A) (A) (A) (A) (A)
                 (A) (A) (A) (A) (A) (A) (A) (A) (A) (A) (A) (A)
                 (A) (A) (A) (A) (A) (A) (A) (A) (A)
 <S**2> of initial guess= 0.7802
 Using densities on the checkpoint file.

 **********************************************************************

            Population analysis using the SCF density.

 **********************************************************************

 Orbital symmetries:
 Alpha Orbitals:
       Occupied  (A) (A) (A) (A) (A) (A) (A) (A) (A) (A) (A) (A)
                 (A) (A) (A) (A) (A) (A) (A) (A) (A) (A) (A) (A)
                 (A) (A) (A) (A) (A) (A) (A) (A) (A) (A) (A) (A)
                 (A) (A) (A) (A) (A) (A) (A) (A) (A) (A) (A) (A)
                 (A) (A) (A) (A) (A) (A) (A) (A) (A) (A) (A) (A)
                 (A) (A) (A) (A) (A) (A) (A) (A) (A) (A) (A) (A)
                 (A) (A) (A) (A) (A) (A) (A) (A) (A) (A) (A) (A)
                 (A) (A) (A) (A) (A) (A) (A) (A) (A) (A) (A) (A)
                 (A) (A) (A) (A) (A) (A) (A) (A) (A) (A) (A) (A)
                 (A) (A) (A) (A) (A) (A) (A) (A) (A) (A) (A) (A)
                 (A) (A) (A) (A) (A) (A) (A) (A) (A) (A) (A) (A)
                 (A) (A) (A) (A) (A) (A) (A) (A) (A) (A) (A) (A)
                 (A) (A) (A) (A) (A) (A) (A) (A) (A) (A) (A) (A)
                 (A) (A) (A) (A) (A) (A) (A) (A) (A) (A) (A) (A)
                 (A) (A) (A) (A) (A) (A) (A) (A) (A) (A) (A) (A)
                 (A) (A) (A) (A) (A) (A) (A) (A) (A) (A) (A) (A)
                 (A) (A) (A) (A) (A) (A) (A) (A) (A) (A) (A) (A)
                 (A) (A) (A) (A) (A) (A) (A) (A) (A) (A) (A) (A)
                 (A) (A) (A) (A) (A) (A) (A) (A) (A) (A) (A) (A)
                 (A) (A) (A) (A) (A) (A) (A) (A) (A) (A) (A) (A)
                 (A) (A) (A) (A) (A) (A) (A) (A) (A) (A) (A) (A)
                 (A) (A) (A) (A) (A) (A) (A) (A) (A) (A) (A) (A)
                 (A) (A) (A) (A) (A) (A) (A) (A) (A) (A) (A) (A)
                 (A) (A) (A) (A) (A) (A) (A) (A) (A) (A) (A) (A)
                 (A) (A) (A) (A) (A) (A) (A) (A) (A)
       Virtual   (A) (A) (A) (A) (A) (A) (A) (A) (A) (A) (A) (A)
                 (A) (A) (A) (A) (A) (A) (A) (A) (A) (A) (A) (A)
                 (A) (A) (A) (A) (A) (A) (A) (A) (A) (A) (A) (A)
                 (A) (A) (A) (A) (A) (A) (A) (A) (A) (A) (A) (A)
                 (A) (A) (A) (A) (A) (A) (A) (A) (A) (A) (A) (A)
                 (A) (A) (A) (A) (A) (A) (A) (A) (A) (A) (A) (A)
                 (A) (A) (A) (A) (A) (A) (A) (A) (A) (A) (A) (A)
                 (A) (A) (A) (A) (A) (A) (A) (A) (A) (A) (A) (A)
                 (A) (A) (A) (A) (A) (A) (A) (A) (A) (A) (A) (A)
                 (A) (A) (A) (A) (A) (A) (A) (A) (A) (A) (A) (A)
                 (A) (A) (A) (A) (A) (A) (A) (A) (A) (A) (A) (A)
                 (A) (A) (A) (A) (A) (A) (A) (A) (A) (A) (A) (A)
                 (A) (A) (A) (A) (A) (A) (A) (A) (A) (A) (A) (A)
                 (A) (A) (A) (A) (A) (A) (A) (A) (A) (A) (A) (A)
                 (A) (A) (A) (A) (A) (A) (A) (A) (A) (A) (A) (A)
                 (A) (A) (A) (A) (A) (A) (A) (A) (A) (A) (A) (A)
                 (A) (A) (A) (A) (A) (A) (A) (A) (A) (A) (A) (A)
                 (A) (A) (A) (A) (A) (A) (A) (A) (A) (A) (A) (A)
                 (A) (A) (A) (A) (A) (A) (A) (A) (A) (A) (A) (A)
                 (A) (A) (A) (A) (A) (A) (A) (A) (A) (A) (A) (A)
                 (A) (A) (A) (A) (A) (A) (A) (A) (A) (A) (A) (A)
                 (A) (A) (A) (A) (A) (A) (A) (A) (A) (A) (A) (A)
                 (A) (A) (A) (A) (A) (A) (A) (A) (A) (A) (A) (A)
                 (A) (A) (A) (A) (A) (A) (A) (A) (A) (A) (A) (A)
                 (A) (A) (A) (A) (A) (A) (A) (A) (A) (A) (A) (A)
                 (A) (A) (A) (A) (A) (A) (A) (A) (A) (A) (A) (A)
                 (A) (A) (A) (A) (A) (A) (A) (A) (A) (A) (A) (A)
                 (A) (A) (A) (A) (A) (A) (A) (A) (A) (A) (A) (A)
                 (A) (A) (A) (A) (A) (A) (A) (A) (A) (A) (A) (A)
                 (A) (A) (A) (A) (A) (A) (A) (A) (A) (A) (A) (A)
                 (A) (A) (A) (A) (A) (A) (A) (A) (A) (A) (A) (A)
                 (A) (A) (A) (A) (A) (A) (A) (A) (A) (A) (A) (A)
                 (A) (A) (A) (A) (A) (A) (A) (A) (A) (A) (A) (A)
                 (A) (A) (A) (A) (A) (A) (A) (A) (A) (A) (A) (A)
                 (A) (A) (A) (A) (A) (A) (A) (A) (A) (A) (A) (A)
                 (A) (A) (A) (A) (A) (A) (A) (A) (A) (A) (A) (A)
                 (A) (A) (A) (A) (A) (A) (A) (A) (A) (A) (A) (A)
                 (A) (A) (A) (A) (A) (A) (A) (A) (A) (A) (A) (A)
                 (A) (A) (A) (A) (A) (A) (A) (A) (A) (A) (A) (A)
                 (A) (A) (A) (A) (A) (A) (A) (A) (A) (A) (A) (A)
                 (A) (A) (A) (A) (A) (A) (A) (A) (A) (A) (A) (A)
                 (A) (A) (A) (A) (A) (A) (A) (A) (A) (A) (A) (A)
                 (A) (A) (A) (A) (A) (A) (A) (A) (A) (A) (A) (A)
                 (A) (A) (A) (A) (A) (A) (A) (A) (A) (A) (A) (A)
                 (A) (A) (A) (A) (A) (A) (A) (A) (A) (A) (A) (A)
                 (A) (A) (A) (A) (A) (A) (A) (A) (A) (A) (A) (A)
                 (A) (A) (A) (A) (A) (A) (A) (A) (A) (A) (A) (A)
                 (A) (A) (A) (A) (A) (A) (A) (A) (A) (A) (A) (A)
                 (A) (A) (A) (A) (A) (A) (A) (A) (A) (A) (A) (A)
                 (A) (A) (A) (A) (A) (A) (A) (A) (A) (A) (A) (A)
                 (A) (A) (A) (A) (A) (A) (A) (A) (A) (A) (A) (A)
                 (A) (A) (A) (A) (A) (A) (A) (A) (A) (A) (A) (A)
                 (A) (A) (A) (A) (A) (A) (A) (A) (A) (A) (A) (A)
                 (A) (A) (A) (A) (A) (A) (A) (A) (A) (A) (A) (A)
                 (A) (A) (A) (A) (A) (A) (A) (A) (A) (A) (A) (A)
                 (A) (A) (A) (A) (A) (A) (A) (A) (A) (A) (A) (A)
                 (A) (A) (A) (A) (A) (A) (A) (A) (A) (A) (A) (A)
                 (A) (A) (A) (A) (A) (A) (A) (A) (A) (A) (A) (A)
                 (A) (A) (A) (A) (A) (A) (A) (A) (A) (A) (A) (A)
                 (A) (A) (A) (A) (A) (A) (A) (A) (A) (A) (A) (A)
                 (A) (A) (A) (A) (A) (A) (A) (A) (A) (A) (A) (A)
                 (A) (A) (A) (A) (A) (A) (A) (A) (A) (A) (A) (A)
                 (A) (A) (A) (A) (A) (A) (A) (A) (A) (A) (A) (A)
                 (A) (A) (A) (A) (A) (A) (A) (A) (A) (A) (A) (A)
                 (A) (A) (A) (A) (A) (A) (A) (A) (A) (A) (A) (A)
                 (A) (A) (A) (A) (A) (A) (A) (A) (A) (A) (A) (A)
                 (A) (A) (A) (A) (A) (A) (A) (A) (A) (A) (A) (A)
                 (A) (A) (A) (A) (A) (A) (A) (A) (A) (A) (A) (A)
                 (A) (A) (A) (A) (A) (A) (A) (A) (A) (A) (A) (A)
                 (A) (A) (A) (A) (A) (A) (A) (A) (A) (A) (A) (A)
                 (A) (A) (A) (A) (A) (A) (A) (A) (A) (A) (A) (A)
                 (A) (A) (A) (A) (A) (A) (A) (A) (A) (A) (A) (A)
                 (A) (A) (A) (A) (A) (A) (A) (A) (A) (A) (A) (A)
                 (A) (A) (A) (A) (A) (A) (A) (A) (A) (A) (A) (A)
                 (A) (A) (A) (A) (A) (A) (A) (A) (A) (A) (A) (A)
                 (A) (A) (A) (A) (A) (A) (A) (A) (A) (A) (A) (A)
                 (A) (A) (A) (A) (A) (A) (A) (A) (A) (A) (A) (A)
                 (A) (A) (A) (A) (A) (A) (A) (A) (A) (A) (A) (A)
                 (A) (A) (A) (A) (A) (A) (A) (A) (A) (A) (A) (A)
                 (A) (A) (A) (A) (A) (A) (A) (A) (A) (A) (A) (A)
                 (A) (A) (A) (A) (A) (A) (A) (A) (A) (A) (A) (A)
                 (A) (A) (A) (A) (A) (A) (A) (A) (A) (A) (A) (A)
                 (A) (A) (A) (A) (A) (A) (A) (A) (A) (A) (A) (A)
                 (A) (A) (A) (A) (A) (A) (A) (A) (A) (A) (A) (A)
                 (A) (A) (A) (A) (A) (A) (A) (A) (A) (A) (A) (A)
                 (A) (A) (A) (A) (A) (A) (A) (A) (A) (A) (A) (A)
                 (A) (A) (A) (A) (A) (A) (A) (A) (A) (A) (A) (A)
                 (A) (A) (A) (A) (A) (A) (A) (A) (A) (A) (A) (A)
                 (A) (A) (A) (A) (A) (A) (A) (A) (A) (A) (A) (A)
                 (A) (A) (A) (A) (A) (A) (A) (A) (A) (A) (A) (A)
                 (A) (A) (A) (A) (A) (A) (A) (A) (A) (A) (A) (A)
                 (A) (A) (A) (A) (A) (A) (A) (A) (A) (A) (A) (A)
                 (A) (A) (A) (A) (A) (A) (A) (A) (A) (A) (A) (A)
                 (A) (A) (A) (A) (A) (A) (A) (A) (A) (A) (A) (A)
                 (A) (A) (A) (A) (A) (A) (A) (A) (A) (A) (A) (A)
                 (A) (A) (A) (A) (A) (A) (A) (A) (A) (A) (A) (A)
                 (A) (A) (A) (A) (A) (A) (A) (A) (A) (A) (A) (A)
                 (A) (A) (A) (A) (A) (A) (A) (A) (A) (A) (A) (A)
                 (A) (A) (A) (A) (A) (A) (A) (A) (A) (A) (A) (A)
                 (A) (A) (A) (A) (A) (A) (A) (A) (A) (A) (A) (A)
                 (A) (A) (A) (A) (A) (A) (A) (A) (A) (A) (A) (A)
                 (A) (A) (A) (A) (A) (A) (A) (A) (A) (A) (A) (A)
                 (A) (A) (A) (A) (A) (A) (A) (A) (A) (A) (A) (A)
                 (A) (A) (A) (A) (A) (A) (A) (A) (A) (A) (A) (A)
                 (A) (A) (A) (A) (A) (A) (A) (A) (A) (A) (A) (A)
                 (A) (A) (A) (A) (A) (A) (A) (A) (A) (A) (A) (A)
                 (A) (A) (A) (A) (A) (A) (A) (A) (A) (A) (A) (A)
                 (A) (A) (A) (A) (A) (A) (A) (A) (A) (A) (A) (A)
                 (A) (A) (A) (A) (A) (A) (A) (A) (A) (A) (A) (A)
                 (A) (A) (A) (A) (A) (A) (A) (A) (A) (A) (A) (A)
                 (A) (A) (A) (A) (A) (A) (A) (A) (A) (A) (A) (A)
                 (A) (A) (A) (A) (A) (A) (A) (A) (A) (A) (A) (A)
                 (A) (A) (A) (A) (A) (A) (A) (A) (A) (A) (A) (A)
                 (A) (A) (A) (A) (A) (A) (A) (A) (A) (A) (A) (A)
                 (A) (A) (A) (A) (A) (A) (A) (A) (A) (A) (A) (A)
                 (A) (A) (A) (A) (A) (A) (A) (A) (A) (A) (A) (A)
                 (A) (A) (A) (A) (A) (A) (A) (A) (A) (A) (A) (A)
                 (A) (A) (A) (A) (A) (A) (A) (A) (A) (A) (A) (A)
                 (A) (A) (A) (A) (A) (A) (A) (A) (A) (A) (A) (A)
                 (A) (A) (A) (A) (A) (A) (A) (A) (A) (A) (A) (A)
                 (A) (A) (A) (A) (A) (A) (A) (A) (A) (A) (A) (A)
                 (A) (A) (A) (A) (A) (A) (A) (A) (A) (A) (A) (A)
                 (A) (A) (A) (A) (A) (A) (A) (A) (A) (A) (A) (A)
                 (A) (A) (A) (A) (A) (A) (A) (A) (A) (A) (A) (A)
                 (A) (A) (A) (A) (A) (A) (A) (A) (A) (A) (A) (A)
                 (A) (A) (A) (A) (A) (A) (A) (A) (A) (A) (A) (A)
                 (A) (A) (A) (A) (A) (A) (A) (A) (A) (A) (A) (A)
                 (A) (A) (A) (A) (A) (A) (A) (A) (A) (A) (A) (A)
                 (A) (A) (A) (A) (A) (A) (A) (A) (A) (A) (A) (A)
                 (A) (A) (A) (A) (A) (A) (A) (A) (A) (A) (A) (A)
                 (A) (A) (A) (A) (A) (A) (A) (A) (A) (A) (A) (A)
                 (A) (A) (A) (A) (A) (A) (A) (A) (A) (A) (A) (A)
                 (A) (A) (A) (A) (A) (A) (A) (A) (A) (A) (A) (A)
                 (A) (A) (A) (A) (A) (A) (A) (A) (A) (A) (A) (A)
                 (A) (A) (A) (A) (A) (A) (A) (A) (A) (A) (A) (A)
                 (A) (A) (A) (A) (A) (A) (A) (A) (A) (A) (A) (A)
                 (A) (A) (A) (A) (A) (A) (A) (A) (A) (A) (A) (A)
                 (A) (A) (A) (A) (A) (A) (A) (A) (A) (A) (A) (A)
                 (A) (A) (A) (A) (A) (A) (A) (A) (A) (A) (A) (A)
                 (A) (A) (A) (A) (A) (A) (A) (A) (A) (A) (A) (A)
                 (A) (A) (A) (A) (A) (A) (A) (A) (A) (A) (A) (A)
                 (A) (A) (A) (A) (A) (A) (A) (A) (A) (A) (A) (A)
                 (A) (A) (A) (A) (A) (A) (A) (A)
 Beta  Orbitals:
       Occupied  (A) (A) (A) (A) (A) (A) (A) (A) (A) (A) (A) (A)
                 (A) (A) (A) (A) (A) (A) (A) (A) (A) (A) (A) (A)
                 (A) (A) (A) (A) (A) (A) (A) (A) (A) (A) (A) (A)
                 (A) (A) (A) (A) (A) (A) (A) (A) (A) (A) (A) (A)
                 (A) (A) (A) (A) (A) (A) (A) (A) (A) (A) (A) (A)
                 (A) (A) (A) (A) (A) (A) (A) (A) (A) (A) (A) (A)
                 (A) (A) (A) (A) (A) (A) (A) (A) (A) (A) (A) (A)
                 (A) (A) (A) (A) (A) (A) (A) (A) (A) (A) (A) (A)
                 (A) (A) (A) (A) (A) (A) (A) (A) (A) (A) (A) (A)
                 (A) (A) (A) (A) (A) (A) (A) (A) (A) (A) (A) (A)
                 (A) (A) (A) (A) (A) (A) (A) (A) (A) (A) (A) (A)
                 (A) (A) (A) (A) (A) (A) (A) (A) (A) (A) (A) (A)
                 (A) (A) (A) (A) (A) (A) (A) (A) (A) (A) (A) (A)
                 (A) (A) (A) (A) (A) (A) (A) (A) (A) (A) (A) (A)
                 (A) (A) (A) (A) (A) (A) (A) (A) (A) (A) (A) (A)
                 (A) (A) (A) (A) (A) (A) (A) (A) (A) (A) (A) (A)
                 (A) (A) (A) (A) (A) (A) (A) (A) (A) (A) (A) (A)
                 (A) (A) (A) (A) (A) (A) (A) (A) (A) (A) (A) (A)
                 (A) (A) (A) (A) (A) (A) (A) (A) (A) (A) (A) (A)
                 (A) (A) (A) (A) (A) (A) (A) (A) (A) (A) (A) (A)
                 (A) (A) (A) (A) (A) (A) (A) (A) (A) (A) (A) (A)
                 (A) (A) (A) (A) (A) (A) (A) (A) (A) (A) (A) (A)
                 (A) (A) (A) (A) (A) (A) (A) (A) (A) (A) (A) (A)
                 (A) (A) (A) (A) (A) (A) (A) (A) (A) (A) (A) (A)
                 (A) (A) (A) (A) (A) (A) (A) (A)
       Virtual   (A) (A) (A) (A) (A) (A) (A) (A) (A) (A) (A) (A)
                 (A) (A) (A) (A) (A) (A) (A) (A) (A) (A) (A) (A)
                 (A) (A) (A) (A) (A) (A) (A) (A) (A) (A) (A) (A)
                 (A) (A) (A) (A) (A) (A) (A) (A) (A) (A) (A) (A)
                 (A) (A) (A) (A) (A) (A) (A) (A) (A) (A) (A) (A)
                 (A) (A) (A) (A) (A) (A) (A) (A) (A) (A) (A) (A)
                 (A) (A) (A) (A) (A) (A) (A) (A) (A) (A) (A) (A)
                 (A) (A) (A) (A) (A) (A) (A) (A) (A) (A) (A) (A)
                 (A) (A) (A) (A) (A) (A) (A) (A) (A) (A) (A) (A)
                 (A) (A) (A) (A) (A) (A) (A) (A) (A) (A) (A) (A)
                 (A) (A) (A) (A) (A) (A) (A) (A) (A) (A) (A) (A)
                 (A) (A) (A) (A) (A) (A) (A) (A) (A) (A) (A) (A)
                 (A) (A) (A) (A) (A) (A) (A) (A) (A) (A) (A) (A)
                 (A) (A) (A) (A) (A) (A) (A) (A) (A) (A) (A) (A)
                 (A) (A) (A) (A) (A) (A) (A) (A) (A) (A) (A) (A)
                 (A) (A) (A) (A) (A) (A) (A) (A) (A) (A) (A) (A)
                 (A) (A) (A) (A) (A) (A) (A) (A) (A) (A) (A) (A)
                 (A) (A) (A) (A) (A) (A) (A) (A) (A) (A) (A) (A)
                 (A) (A) (A) (A) (A) (A) (A) (A) (A) (A) (A) (A)
                 (A) (A) (A) (A) (A) (A) (A) (A) (A) (A) (A) (A)
                 (A) (A) (A) (A) (A) (A) (A) (A) (A) (A) (A) (A)
                 (A) (A) (A) (A) (A) (A) (A) (A) (A) (A) (A) (A)
                 (A) (A) (A) (A) (A) (A) (A) (A) (A) (A) (A) (A)
                 (A) (A) (A) (A) (A) (A) (A) (A) (A) (A) (A) (A)
                 (A) (A) (A) (A) (A) (A) (A) (A) (A) (A) (A) (A)
                 (A) (A) (A) (A) (A) (A) (A) (A) (A) (A) (A) (A)
                 (A) (A) (A) (A) (A) (A) (A) (A) (A) (A) (A) (A)
                 (A) (A) (A) (A) (A) (A) (A) (A) (A) (A) (A) (A)
                 (A) (A) (A) (A) (A) (A) (A) (A) (A) (A) (A) (A)
                 (A) (A) (A) (A) (A) (A) (A) (A) (A) (A) (A) (A)
                 (A) (A) (A) (A) (A) (A) (A) (A) (A) (A) (A) (A)
                 (A) (A) (A) (A) (A) (A) (A) (A) (A) (A) (A) (A)
                 (A) (A) (A) (A) (A) (A) (A) (A) (A) (A) (A) (A)
                 (A) (A) (A) (A) (A) (A) (A) (A) (A) (A) (A) (A)
                 (A) (A) (A) (A) (A) (A) (A) (A) (A) (A) (A) (A)
                 (A) (A) (A) (A) (A) (A) (A) (A) (A) (A) (A) (A)
                 (A) (A) (A) (A) (A) (A) (A) (A) (A) (A) (A) (A)
                 (A) (A) (A) (A) (A) (A) (A) (A) (A) (A) (A) (A)
                 (A) (A) (A) (A) (A) (A) (A) (A) (A) (A) (A) (A)
                 (A) (A) (A) (A) (A) (A) (A) (A) (A) (A) (A) (A)
                 (A) (A) (A) (A) (A) (A) (A) (A) (A) (A) (A) (A)
                 (A) (A) (A) (A) (A) (A) (A) (A) (A) (A) (A) (A)
                 (A) (A) (A) (A) (A) (A) (A) (A) (A) (A) (A) (A)
                 (A) (A) (A) (A) (A) (A) (A) (A) (A) (A) (A) (A)
                 (A) (A) (A) (A) (A) (A) (A) (A) (A) (A) (A) (A)
                 (A) (A) (A) (A) (A) (A) (A) (A) (A) (A) (A) (A)
                 (A) (A) (A) (A) (A) (A) (A) (A) (A) (A) (A) (A)
                 (A) (A) (A) (A) (A) (A) (A) (A) (A) (A) (A) (A)
                 (A) (A) (A) (A) (A) (A) (A) (A) (A) (A) (A) (A)
                 (A) (A) (A) (A) (A) (A) (A) (A) (A) (A) (A) (A)
                 (A) (A) (A) (A) (A) (A) (A) (A) (A) (A) (A) (A)
                 (A) (A) (A) (A) (A) (A) (A) (A) (A) (A) (A) (A)
                 (A) (A) (A) (A) (A) (A) (A) (A) (A) (A) (A) (A)
                 (A) (A) (A) (A) (A) (A) (A) (A) (A) (A) (A) (A)
                 (A) (A) (A) (A) (A) (A) (A) (A) (A) (A) (A) (A)
                 (A) (A) (A) (A) (A) (A) (A) (A) (A) (A) (A) (A)
                 (A) (A) (A) (A) (A) (A) (A) (A) (A) (A) (A) (A)
                 (A) (A) (A) (A) (A) (A) (A) (A) (A) (A) (A) (A)
                 (A) (A) (A) (A) (A) (A) (A) (A) (A) (A) (A) (A)
                 (A) (A) (A) (A) (A) (A) (A) (A) (A) (A) (A) (A)
                 (A) (A) (A) (A) (A) (A) (A) (A) (A) (A) (A) (A)
                 (A) (A) (A) (A) (A) (A) (A) (A) (A) (A) (A) (A)
                 (A) (A) (A) (A) (A) (A) (A) (A) (A) (A) (A) (A)
                 (A) (A) (A) (A) (A) (A) (A) (A) (A) (A) (A) (A)
                 (A) (A) (A) (A) (A) (A) (A) (A) (A) (A) (A) (A)
                 (A) (A) (A) (A) (A) (A) (A) (A) (A) (A) (A) (A)
                 (A) (A) (A) (A) (A) (A) (A) (A) (A) (A) (A) (A)
                 (A) (A) (A) (A) (A) (A) (A) (A) (A) (A) (A) (A)
                 (A) (A) (A) (A) (A) (A) (A) (A) (A) (A) (A) (A)
                 (A) (A) (A) (A) (A) (A) (A) (A) (A) (A) (A) (A)
                 (A) (A) (A) (A) (A) (A) (A) (A) (A) (A) (A) (A)
                 (A) (A) (A) (A) (A) (A) (A) (A) (A) (A) (A) (A)
                 (A) (A) (A) (A) (A) (A) (A) (A) (A) (A) (A) (A)
                 (A) (A) (A) (A) (A) (A) (A) (A) (A) (A) (A) (A)
                 (A) (A) (A) (A) (A) (A) (A) (A) (A) (A) (A) (A)
                 (A) (A) (A) (A) (A) (A) (A) (A) (A) (A) (A) (A)
                 (A) (A) (A) (A) (A) (A) (A) (A) (A) (A) (A) (A)
                 (A) (A) (A) (A) (A) (A) (A) (A) (A) (A) (A) (A)
                 (A) (A) (A) (A) (A) (A) (A) (A) (A) (A) (A) (A)
                 (A) (A) (A) (A) (A) (A) (A) (A) (A) (A) (A) (A)
                 (A) (A) (A) (A) (A) (A) (A) (A) (A) (A) (A) (A)
                 (A) (A) (A) (A) (A) (A) (A) (A) (A) (A) (A) (A)
                 (A) (A) (A) (A) (A) (A) (A) (A) (A) (A) (A) (A)
                 (A) (A) (A) (A) (A) (A) (A) (A) (A) (A) (A) (A)
                 (A) (A) (A) (A) (A) (A) (A) (A) (A) (A) (A) (A)
                 (A) (A) (A) (A) (A) (A) (A) (A) (A) (A) (A) (A)
                 (A) (A) (A) (A) (A) (A) (A) (A) (A) (A) (A) (A)
                 (A) (A) (A) (A) (A) (A) (A) (A) (A) (A) (A) (A)
                 (A) (A) (A) (A) (A) (A) (A) (A) (A) (A) (A) (A)
                 (A) (A) (A) (A) (A) (A) (A) (A) (A) (A) (A) (A)
                 (A) (A) (A) (A) (A) (A) (A) (A) (A) (A) (A) (A)
                 (A) (A) (A) (A) (A) (A) (A) (A) (A) (A) (A) (A)
                 (A) (A) (A) (A) (A) (A) (A) (A) (A) (A) (A) (A)
                 (A) (A) (A) (A) (A) (A) (A) (A) (A) (A) (A) (A)
                 (A) (A) (A) (A) (A) (A) (A) (A) (A) (A) (A) (A)
                 (A) (A) (A) (A) (A) (A) (A) (A) (A) (A) (A) (A)
                 (A) (A) (A) (A) (A) (A) (A) (A) (A) (A) (A) (A)
                 (A) (A) (A) (A) (A) (A) (A) (A) (A) (A) (A) (A)
                 (A) (A) (A) (A) (A) (A) (A) (A) (A) (A) (A) (A)
                 (A) (A) (A) (A) (A) (A) (A) (A) (A) (A) (A) (A)
                 (A) (A) (A) (A) (A) (A) (A) (A) (A) (A) (A) (A)
                 (A) (A) (A) (A) (A) (A) (A) (A) (A) (A) (A) (A)
                 (A) (A) (A) (A) (A) (A) (A) (A) (A) (A) (A) (A)
                 (A) (A) (A) (A) (A) (A) (A) (A) (A) (A) (A) (A)
                 (A) (A) (A) (A) (A) (A) (A) (A) (A) (A) (A) (A)
                 (A) (A) (A) (A) (A) (A) (A) (A) (A) (A) (A) (A)
                 (A) (A) (A) (A) (A) (A) (A) (A) (A) (A) (A) (A)
                 (A) (A) (A) (A) (A) (A) (A) (A) (A) (A) (A) (A)
                 (A) (A) (A) (A) (A) (A) (A) (A) (A) (A) (A) (A)
                 (A) (A) (A) (A) (A) (A) (A) (A) (A) (A) (A) (A)
                 (A) (A) (A) (A) (A) (A) (A) (A) (A) (A) (A) (A)
                 (A) (A) (A) (A) (A) (A) (A) (A) (A) (A) (A) (A)
                 (A) (A) (A) (A) (A) (A) (A) (A) (A) (A) (A) (A)
                 (A) (A) (A) (A) (A) (A) (A) (A) (A) (A) (A) (A)
                 (A) (A) (A) (A) (A) (A) (A) (A) (A) (A) (A) (A)
                 (A) (A) (A) (A) (A) (A) (A) (A) (A) (A) (A) (A)
                 (A) (A) (A) (A) (A) (A) (A) (A) (A) (A) (A) (A)
                 (A) (A) (A) (A) (A) (A) (A) (A) (A) (A) (A) (A)
                 (A) (A) (A) (A) (A) (A) (A) (A) (A) (A) (A) (A)
                 (A) (A) (A) (A) (A) (A) (A) (A) (A) (A) (A) (A)
                 (A) (A) (A) (A) (A) (A) (A) (A) (A) (A) (A) (A)
                 (A) (A) (A) (A) (A) (A) (A) (A) (A) (A) (A) (A)
                 (A) (A) (A) (A) (A) (A) (A) (A) (A) (A) (A) (A)
                 (A) (A) (A) (A) (A) (A) (A) (A) (A) (A) (A) (A)
                 (A) (A) (A) (A) (A) (A) (A) (A) (A) (A) (A) (A)
                 (A) (A) (A) (A) (A) (A) (A) (A) (A) (A) (A) (A)
                 (A) (A) (A) (A) (A) (A) (A) (A) (A) (A) (A) (A)
                 (A) (A) (A) (A) (A) (A) (A) (A) (A) (A) (A) (A)
                 (A) (A) (A) (A) (A) (A) (A) (A) (A) (A) (A) (A)
                 (A) (A) (A) (A) (A) (A) (A) (A) (A) (A) (A) (A)
                 (A) (A) (A) (A) (A) (A) (A) (A) (A) (A) (A) (A)
                 (A) (A) (A) (A) (A) (A) (A) (A) (A) (A) (A) (A)
                 (A) (A) (A) (A) (A) (A) (A) (A) (A) (A) (A) (A)
                 (A) (A) (A) (A) (A) (A) (A) (A) (A) (A) (A) (A)
                 (A) (A) (A) (A) (A) (A) (A) (A) (A) (A) (A) (A)
                 (A) (A) (A) (A) (A) (A) (A) (A) (A) (A) (A) (A)
                 (A) (A) (A) (A) (A) (A) (A) (A) (A) (A) (A) (A)
                 (A) (A) (A) (A) (A) (A) (A) (A) (A) (A) (A) (A)
                 (A) (A) (A) (A) (A) (A) (A) (A) (A) (A) (A) (A)
                 (A) (A) (A) (A) (A) (A) (A) (A) (A) (A) (A) (A)
                 (A) (A) (A) (A) (A) (A) (A) (A) (A) (A) (A) (A)
                 (A) (A) (A) (A) (A) (A) (A) (A) (A) (A) (A) (A)
                 (A) (A) (A) (A) (A) (A) (A) (A) (A)
 The electronic state is 2-A.
 Alpha  occ. eigenvalues --  -19.16901 -14.43063 -14.40581 -14.40519 -14.34768
 Alpha  occ. eigenvalues --  -14.34715 -10.35654 -10.29870 -10.29599 -10.29510
 Alpha  occ. eigenvalues --  -10.29303 -10.29147 -10.28636 -10.28547 -10.28337
 Alpha  occ. eigenvalues --  -10.28277 -10.28146 -10.28036 -10.28028 -10.28025
 Alpha  occ. eigenvalues --  -10.27989 -10.27926 -10.27879 -10.27482 -10.27481
 Alpha  occ. eigenvalues --  -10.27480 -10.27428 -10.27231 -10.27121 -10.27073
 Alpha  occ. eigenvalues --  -10.26954 -10.26884 -10.26802 -10.26715 -10.26715
 Alpha  occ. eigenvalues --  -10.26676 -10.26415 -10.26334 -10.26285 -10.26233
 Alpha  occ. eigenvalues --  -10.26060 -10.25857 -10.25854 -10.25765 -10.25731
 Alpha  occ. eigenvalues --  -10.25718 -10.25514 -10.25371 -10.25362 -10.25242
 Alpha  occ. eigenvalues --  -10.25157 -10.24991 -10.24893 -10.24849 -10.24834
 Alpha  occ. eigenvalues --  -10.24778 -10.24705 -10.24391 -10.24343 -10.24342
 Alpha  occ. eigenvalues --  -10.24082 -10.24038 -10.24002 -10.23978 -10.23959
 Alpha  occ. eigenvalues --  -10.23744 -10.23741 -10.23576 -10.23498 -10.23418
 Alpha  occ. eigenvalues --  -10.23187 -10.23079 -10.23063 -10.23031 -10.22902
 Alpha  occ. eigenvalues --  -10.22856 -10.22391 -10.22353 -10.22253 -10.22252
 Alpha  occ. eigenvalues --  -10.22170 -10.21841 -10.21535 -10.21123  -1.09550
 Alpha  occ. eigenvalues --   -1.02658  -1.02496  -0.99895  -0.98214  -0.97938
 Alpha  occ. eigenvalues --   -0.93212  -0.92328  -0.91799  -0.91255  -0.90890
 Alpha  occ. eigenvalues --   -0.90443  -0.90416  -0.89759  -0.87634  -0.86617
 Alpha  occ. eigenvalues --   -0.86077  -0.85651  -0.85457  -0.85002  -0.84710
 Alpha  occ. eigenvalues --   -0.84325  -0.83476  -0.83303  -0.83167  -0.83057
 Alpha  occ. eigenvalues --   -0.82100  -0.81718  -0.81315  -0.80057  -0.79606
 Alpha  occ. eigenvalues --   -0.79068  -0.78910  -0.78879  -0.78572  -0.78230
 Alpha  occ. eigenvalues --   -0.76748  -0.76725  -0.76612  -0.76358  -0.75953
 Alpha  occ. eigenvalues --   -0.75825  -0.75383  -0.74403  -0.73748  -0.73550
 Alpha  occ. eigenvalues --   -0.73509  -0.72816  -0.72514  -0.72295  -0.71117
 Alpha  occ. eigenvalues --   -0.70813  -0.70674  -0.69623  -0.68764  -0.68380
 Alpha  occ. eigenvalues --   -0.68077  -0.67515  -0.66606  -0.65689  -0.64808
 Alpha  occ. eigenvalues --   -0.64525  -0.64210  -0.63207  -0.63021  -0.62818
 Alpha  occ. eigenvalues --   -0.62396  -0.61846  -0.61593  -0.61087  -0.60655
 Alpha  occ. eigenvalues --   -0.60442  -0.60348  -0.60073  -0.59973  -0.59165
 Alpha  occ. eigenvalues --   -0.59115  -0.58905  -0.57983  -0.57290  -0.57120
 Alpha  occ. eigenvalues --   -0.56415  -0.55744  -0.55521  -0.55397  -0.55054
 Alpha  occ. eigenvalues --   -0.54828  -0.54473  -0.53847  -0.53699  -0.52838
 Alpha  occ. eigenvalues --   -0.52694  -0.52641  -0.51867  -0.51684  -0.51265
 Alpha  occ. eigenvalues --   -0.50998  -0.50917  -0.50585  -0.50154  -0.50146
 Alpha  occ. eigenvalues --   -0.49815  -0.49758  -0.49707  -0.49694  -0.49597
 Alpha  occ. eigenvalues --   -0.49558  -0.49197  -0.49180  -0.49110  -0.48950
 Alpha  occ. eigenvalues --   -0.48706  -0.48562  -0.48541  -0.48329  -0.48250
 Alpha  occ. eigenvalues --   -0.48085  -0.47902  -0.47824  -0.47434  -0.47122
 Alpha  occ. eigenvalues --   -0.47025  -0.46813  -0.46777  -0.46755  -0.46690
 Alpha  occ. eigenvalues --   -0.46570  -0.46234  -0.46068  -0.46007  -0.45976
 Alpha  occ. eigenvalues --   -0.45778  -0.45375  -0.45320  -0.45144  -0.45122
 Alpha  occ. eigenvalues --   -0.45013  -0.44891  -0.44879  -0.44617  -0.44537
 Alpha  occ. eigenvalues --   -0.44410  -0.44393  -0.44148  -0.44137  -0.44056
 Alpha  occ. eigenvalues --   -0.44047  -0.43958  -0.43752  -0.43741  -0.43411
 Alpha  occ. eigenvalues --   -0.43126  -0.43066  -0.42953  -0.42860  -0.42679
 Alpha  occ. eigenvalues --   -0.42455  -0.42294  -0.42286  -0.42218  -0.41977
 Alpha  occ. eigenvalues --   -0.41702  -0.41596  -0.41542  -0.41402  -0.41156
 Alpha  occ. eigenvalues --   -0.41040  -0.40973  -0.40914  -0.40884  -0.40491
 Alpha  occ. eigenvalues --   -0.40434  -0.40421  -0.40347  -0.40138  -0.39909
 Alpha  occ. eigenvalues --   -0.39817  -0.39638  -0.39382  -0.38980  -0.38816
 Alpha  occ. eigenvalues --   -0.38662  -0.38303  -0.38292  -0.38137  -0.37621
 Alpha  occ. eigenvalues --   -0.36932  -0.36256  -0.35790  -0.35596  -0.35385
 Alpha  occ. eigenvalues --   -0.34930  -0.33272  -0.32402  -0.31968  -0.31570
 Alpha  occ. eigenvalues --   -0.31281  -0.31060  -0.30937  -0.30713  -0.30646
 Alpha  occ. eigenvalues --   -0.29744  -0.29228  -0.29054  -0.28886  -0.28673
 Alpha  occ. eigenvalues --   -0.27424  -0.26763  -0.26659  -0.26367  -0.24400
 Alpha  occ. eigenvalues --   -0.23590  -0.23310
 Alpha virt. eigenvalues --   -0.17608  -0.13682  -0.12795  -0.12530  -0.11040
 Alpha virt. eigenvalues --   -0.08583  -0.07849  -0.06520  -0.06377  -0.06368
 Alpha virt. eigenvalues --   -0.05738  -0.05435  -0.05374  -0.05185  -0.05070
 Alpha virt. eigenvalues --   -0.04574  -0.04439  -0.04077  -0.03672  -0.03504
[...]
    90 C(13)  Bbb    -0.0152    -2.046    -0.730    -0.682  0.6186 -0.5887 -0.5204
              Bcc     0.0305     4.096     1.462     1.366  0.0386 -0.6387  0.7685
 
              Baa    -0.0006    -0.310    -0.111    -0.103  0.0372 -0.6730  0.7387
    91 H(1)   Bbb    -0.0004    -0.216    -0.077    -0.072 -0.0629  0.7362  0.6739
              Bcc     0.0010     0.526     0.188     0.175  0.9973  0.0715  0.0149
 
              Baa    -0.0188    -2.525    -0.901    -0.842  0.0323 -0.6307  0.7754
    92 C(13)  Bbb     0.0079     1.063     0.379     0.354  0.4950  0.6840  0.5358
              Bcc     0.0109     1.462     0.522     0.488  0.8683 -0.3666 -0.3343
 
              Baa    -0.0012    -0.616    -0.220    -0.205  0.9984 -0.0261 -0.0502
    93 H(1)   Bbb    -0.0007    -0.382    -0.136    -0.127  0.0237 -0.6123  0.7902
              Bcc     0.0019     0.998     0.356     0.333  0.0513  0.7902  0.6107
 
              Baa    -0.0013    -0.712    -0.254    -0.238  0.6974 -0.5261 -0.4867
    94 H(1)   Bbb    -0.0006    -0.344    -0.123    -0.115  0.0556 -0.6374  0.7685
              Bcc     0.0020     1.056     0.377     0.352  0.7146  0.5630  0.4153
 
              Baa    -0.0586    -7.866    -2.807    -2.624  0.8737  0.4079  0.2649
    95 C(13)  Bbb    -0.0564    -7.573    -2.702    -2.526 -0.4845  0.6824  0.5473
              Bcc     0.1151    15.439     5.509     5.150  0.0425 -0.6066  0.7939
 
              Baa    -0.0061    -3.277    -1.169    -1.093  0.9980 -0.0071 -0.0621
    96 H(1)   Bbb    -0.0008    -0.422    -0.151    -0.141  0.0450 -0.6081  0.7926
              Bcc     0.0069     3.699     1.320     1.234  0.0434  0.7938  0.6066
 
              Baa    -0.0481    -6.457    -2.304    -2.154  0.0392 -0.5986  0.8001
    97 C(13)  Bbb     0.0198     2.656     0.948     0.886 -0.1150  0.7927  0.5987
              Bcc     0.0283     3.801     1.356     1.268  0.9926  0.1155  0.0378
 
              Baa    -0.0017    -0.906    -0.323    -0.302  0.0401 -0.2467  0.9683
    98 H(1)   Bbb    -0.0017    -0.889    -0.317    -0.296 -0.0035  0.9690  0.2470
              Bcc     0.0034     1.794     0.640     0.598  0.9992  0.0133 -0.0380
 
              Baa    -0.0671    -9.007    -3.214    -3.004 -0.1779  0.7872  0.5904
    99 C(13)  Bbb    -0.0657    -8.813    -3.145    -2.940  0.9834  0.1643  0.0772
              Bcc     0.1328    17.820     6.359     5.944  0.0362 -0.5944  0.8034
 
              Baa    -0.0453    -6.079    -2.169    -2.028  0.0337 -0.5916  0.8055
   100 C(13)  Bbb     0.0180     2.414     0.861     0.805 -0.2940  0.7644  0.5738
              Bcc     0.0273     3.665     1.308     1.223  0.9552  0.2561  0.1482
 
              Baa    -0.0016    -0.861    -0.307    -0.287 -0.2296  0.0611  0.9714
   101 H(1)   Bbb    -0.0015    -0.823    -0.294    -0.274 -0.3035  0.9438 -0.1312
              Bcc     0.0032     1.684     0.601     0.562  0.9247  0.3249  0.1982
 
              Baa    -0.0604    -8.110    -2.894    -2.705  0.8634 -0.3934 -0.3157
   102 C(13)  Bbb    -0.0594    -7.968    -2.843    -2.658  0.5035  0.7096  0.4929
              Bcc     0.1198    16.079     5.737     5.363  0.0301 -0.5846  0.8108
 
              Baa    -0.0060    -3.225    -1.151    -1.076  0.9888  0.1363  0.0616
   103 H(1)   Bbb    -0.0009    -0.471    -0.168    -0.157  0.0306 -0.5869  0.8091
              Bcc     0.0069     3.696     1.319     1.233 -0.1464  0.7981  0.5845
 
              Baa    -0.0470    -6.312    -2.252    -2.105  0.0282 -0.5825  0.8123
   104 C(13)  Bbb     0.0191     2.556     0.912     0.853 -0.4362  0.7240  0.5343
              Bcc     0.0280     3.756     1.340     1.253  0.8994  0.3694  0.2337
 
              Baa    -0.0019    -1.024    -0.365    -0.342 -0.4180  0.6589  0.6254
   105 H(1)   Bbb    -0.0016    -0.855    -0.305    -0.285  0.0773 -0.6601  0.7472
              Bcc     0.0035     1.879     0.671     0.627  0.9052  0.3606  0.2250
 
              Baa    -0.0549    -7.366    -2.628    -2.457  0.7405 -0.5381 -0.4025
   106 C(13)  Bbb    -0.0512    -6.872    -2.452    -2.292  0.6715  0.6150  0.4133
              Bcc     0.1061    14.238     5.080     4.749  0.0251 -0.5763  0.8168
 
              Baa    -0.0090    -1.202    -0.429    -0.401  0.0413 -0.5932  0.8040
   107 C(13)  Bbb     0.0006     0.081     0.029     0.027  0.6177 -0.6173 -0.4872
              Bcc     0.0084     1.121     0.400     0.374  0.7853  0.5167  0.3409
 
              Baa    -0.0015    -0.789    -0.282    -0.263 -0.0304 -0.5422  0.8397
   108 H(1)   Bbb    -0.0009    -0.465    -0.166    -0.155  0.8952 -0.3885 -0.2185
              Bcc     0.0024     1.254     0.448     0.418  0.4447  0.7450  0.4972
 
              Baa    -0.0364    -4.889    -1.744    -1.631  0.8137 -0.4698 -0.3422
   109 C(13)  Bbb    -0.0325    -4.356    -1.554    -1.453  0.5809  0.6758  0.4536
              Bcc     0.0689     9.245     3.299     3.084  0.0182 -0.5679  0.8229
 
              Baa    -0.0034    -1.807    -0.645    -0.603  0.9596  0.2404  0.1463
   110 H(1)   Bbb    -0.0012    -0.652    -0.232    -0.217  0.0180 -0.5712  0.8206
              Bcc     0.0046     2.459     0.877     0.820 -0.2809  0.7848  0.5524
 
              Baa    -0.0104    -1.398    -0.499    -0.466  0.7134 -0.5767 -0.3982
   111 C(13)  Bbb    -0.0046    -0.614    -0.219    -0.205  0.7006  0.5990  0.3877
              Bcc     0.0150     2.012     0.718     0.671  0.0149 -0.5556  0.8313
 
              Baa    -0.0014    -0.721    -0.257    -0.241 -0.0518 -0.5564  0.8293
   112 H(1)   Bbb    -0.0011    -0.595    -0.212    -0.198  0.9982 -0.0527  0.0271
              Bcc     0.0025     1.316     0.470     0.439  0.0286  0.8293  0.5581
 
              Baa    -0.0240    -3.216    -1.148    -1.073  0.7356 -0.5537 -0.3902
   113 C(13)  Bbb    -0.0185    -2.477    -0.884    -0.826  0.6772  0.6138  0.4057
              Bcc     0.0424     5.693     2.032     1.899  0.0148 -0.5627  0.8265
 
              Baa    -0.0021    -1.140    -0.407    -0.380  0.9947  0.0829  0.0611
   114 H(1)   Bbb    -0.0014    -0.753    -0.269    -0.251 -0.0032 -0.5678  0.8232
              Bcc     0.0035     1.894     0.676     0.632 -0.1030  0.8190  0.5645
 
              Baa    -0.0303    -4.067    -1.451    -1.357  0.7235 -0.5708 -0.3883
   115 C(13)  Bbb    -0.0252    -3.384    -1.207    -1.129  0.6903  0.6061  0.3952
              Bcc     0.0555     7.451     2.659     2.485  0.0098 -0.5539  0.8325
 
              Baa    -0.0037    -0.494    -0.176    -0.165 -0.0436 -0.4457  0.8941
   116 C(13)  Bbb    -0.0018    -0.248    -0.088    -0.083 -0.5417  0.7626  0.3536
              Bcc     0.0055     0.742     0.265     0.247  0.8394  0.4689  0.2747
 
              Baa    -0.0016    -0.864    -0.308    -0.288  0.0382 -0.5765  0.8162
   117 H(1)   Bbb    -0.0007    -0.399    -0.142    -0.133  0.7990 -0.4729 -0.3715
              Bcc     0.0024     1.263     0.451     0.421  0.6002  0.6663  0.4425
 
              Baa    -0.0438    -5.877    -2.097    -1.960  0.6489 -0.6377 -0.4150
   118 C(13)  Bbb    -0.0409    -5.492    -1.960    -1.832  0.7609  0.5449  0.3524
              Bcc     0.0847    11.369     4.057     3.792  0.0014 -0.5444  0.8388
 
              Baa    -0.0042    -2.260    -0.807    -0.754  0.9926  0.1012  0.0675
   119 H(1)   Bbb    -0.0011    -0.595    -0.212    -0.199 -0.0026 -0.5374  0.8433
              Bcc     0.0054     2.856     1.019     0.953 -0.1216  0.8372  0.5331
 
              Baa    -0.0106    -1.418    -0.506    -0.473 -0.0007 -0.5399  0.8417
   120 C(13)  Bbb     0.0011     0.152     0.054     0.051 -0.4063  0.7693  0.4931
              Bcc     0.0094     1.266     0.452     0.422  0.9138  0.3416  0.2199
 
              Baa    -0.0017    -0.892    -0.318    -0.297  0.0193 -0.5597  0.8285
   121 H(1)   Bbb    -0.0007    -0.391    -0.140    -0.131  0.7704 -0.5198 -0.3692
              Bcc     0.0024     1.283     0.458     0.428  0.6373  0.6454  0.4211
 
              Baa    -0.0587    -7.882    -2.812    -2.629 -0.4674  0.7433  0.4786
   122 C(13)  Bbb    -0.0558    -7.493    -2.674    -2.499  0.8841  0.3906  0.2566
              Bcc     0.1146    15.375     5.486     5.128 -0.0038 -0.5431  0.8397
 
              Baa    -0.0313    -4.196    -1.497    -1.400 -0.0496 -0.5589  0.8278
   123 C(13)  Bbb     0.0113     1.523     0.543     0.508 -0.2185  0.8148  0.5370
              Bcc     0.0199     2.673     0.954     0.892  0.9746  0.1543  0.1625
 
              Baa    -0.0020    -1.051    -0.375    -0.350  0.0380 -0.6420  0.7658
   124 H(1)   Bbb    -0.0009    -0.505    -0.180    -0.168 -0.1702  0.7510  0.6380
              Bcc     0.0029     1.556     0.555     0.519  0.9847  0.1546  0.0807
 
              Baa    -0.0583    -7.825    -2.792    -2.610  0.8897  0.3321  0.3131
   125 C(13)  Bbb    -0.0561    -7.524    -2.685    -2.510 -0.4546  0.7071  0.5416
              Bcc     0.1144    15.348     5.477     5.120 -0.0415 -0.6242  0.7801
 
              Baa    -0.0066    -3.533    -1.261    -1.178  0.9990 -0.0181  0.0408
   126 H(1)   Bbb    -0.0008    -0.451    -0.161    -0.151 -0.0424 -0.6735  0.7380
              Bcc     0.0075     3.984     1.422     1.329 -0.0141  0.7389  0.6736
 
              Baa    -0.0006    -0.079    -0.028    -0.026  0.9936  0.0780 -0.0818
   127 C(13)  Bbb    -0.0002    -0.027    -0.010    -0.009  0.1118 -0.5732  0.8118
              Bcc     0.0008     0.106     0.038     0.035 -0.0165  0.8157  0.5782
 
              Baa    -0.0014    -0.734    -0.262    -0.245  0.0129  0.8235 -0.5672
   128 H(1)   Bbb    -0.0001    -0.043    -0.015    -0.014  0.9883 -0.0968 -0.1180
              Bcc     0.0015     0.777     0.277     0.259  0.1521  0.5590  0.8151
 
              Baa    -0.0012    -0.638    -0.228    -0.213  0.0366 -0.5949  0.8030
   129 H(1)   Bbb    -0.0001    -0.072    -0.026    -0.024  0.9568  0.2527  0.1436
              Bcc     0.0013     0.711     0.254     0.237 -0.2884  0.7630  0.5785
 
              Baa    -0.0014    -0.737    -0.263    -0.246  0.0829 -0.3008  0.9501
   130 H(1)   Bbb    -0.0001    -0.034    -0.012    -0.011  0.9890 -0.0926 -0.1156
              Bcc     0.0014     0.771     0.275     0.257  0.1227  0.9492  0.2898
 
              Baa    -0.0007    -0.094    -0.034    -0.031  0.0211 -0.5596  0.8285
   131 C(13)  Bbb    -0.0002    -0.027    -0.010    -0.009  0.9985  0.0544  0.0113
              Bcc     0.0009     0.122     0.043     0.041 -0.0514  0.8270  0.5599
 
              Baa    -0.0013    -0.671    -0.239    -0.224 -0.0585 -0.2903  0.9551
   132 H(1)   Bbb     0.0001     0.066     0.024     0.022  0.9784  0.1733  0.1126
              Bcc     0.0011     0.605     0.216     0.202 -0.1982  0.9411  0.2739
 
              Baa    -0.0013    -0.675    -0.241    -0.225 -0.1086  0.7960 -0.5955
   133 H(1)   Bbb     0.0001     0.070     0.025     0.023  0.9783  0.1920  0.0781
              Bcc     0.0011     0.606     0.216     0.202 -0.1765  0.5741  0.7995
 
              Baa    -0.0011    -0.584    -0.209    -0.195  0.0235 -0.5798  0.8144
   134 H(1)   Bbb    -0.0003    -0.142    -0.051    -0.048  0.8362  0.4579  0.3019
              Bcc     0.0014     0.727     0.259     0.242 -0.5479  0.6739  0.4956
 
              Baa    -0.0012    -0.157    -0.056    -0.052  0.0213 -0.5592  0.8288
   135 C(13)  Bbb     0.0001     0.008     0.003     0.003  0.9995 -0.0082 -0.0312
              Bcc     0.0011     0.148     0.053     0.049  0.0242  0.8290  0.5587
 
              Baa    -0.0009    -0.506    -0.180    -0.169  0.0090 -0.5589  0.8292
   136 H(1)   Bbb    -0.0003    -0.179    -0.064    -0.060  0.8428  0.4505  0.2946
              Bcc     0.0013     0.684     0.244     0.228 -0.5382  0.6962  0.4751
 
              Baa    -0.0011    -0.570    -0.203    -0.190 -0.1264  0.7554 -0.6430
   137 H(1)   Bbb     0.0001     0.072     0.026     0.024  0.9120  0.3435  0.2242
              Bcc     0.0009     0.497     0.177     0.166 -0.3903  0.5580  0.7323
 
              Baa    -0.0011    -0.566    -0.202    -0.189 -0.1145 -0.3005  0.9469
   138 H(1)   Bbb     0.0001     0.066     0.024     0.022  0.9199  0.3278  0.2153
              Bcc     0.0009     0.500     0.178     0.167 -0.3751  0.8957  0.2389
 
              Baa    -0.0007    -0.093    -0.033    -0.031 -0.5369 -0.5208  0.6637
   139 C(13)  Bbb    -0.0004    -0.051    -0.018    -0.017  0.8436 -0.3338  0.4205
              Bcc     0.0011     0.144     0.051     0.048  0.0025  0.7857  0.6186
 
              Baa    -0.0012    -0.641    -0.229    -0.214 -0.0006 -0.5303  0.8478
   140 H(1)   Bbb    -0.0003    -0.167    -0.059    -0.056  0.9390  0.2912  0.1828
              Bcc     0.0015     0.807     0.288     0.269 -0.3438  0.7962  0.4978
 
              Baa    -0.0013    -0.701    -0.250    -0.234  0.0373  0.7886 -0.6138
   141 H(1)   Bbb    -0.0002    -0.089    -0.032    -0.030  0.9991 -0.0426  0.0061
              Bcc     0.0015     0.790     0.282     0.264  0.0213  0.6135  0.7894
 
              Baa    -0.0014    -0.759    -0.271    -0.253 -0.0072 -0.2621  0.9650
   142 H(1)   Bbb     0.0000    -0.014    -0.005    -0.005  1.0000 -0.0048  0.0061
              Bcc     0.0014     0.773     0.276     0.258  0.0030  0.9650  0.2621
 
              Baa    -0.0188    -2.517    -0.898    -0.839  0.3487  0.9201 -0.1782
   143 C(13)  Bbb     0.0075     1.009     0.360     0.337  0.7700 -0.1728  0.6142
              Bcc     0.0112     1.508     0.538     0.503 -0.5344  0.3514  0.7687
 
              Baa    -0.0401    -5.384    -1.921    -1.796  0.3668  0.1017  0.9247
   144 C(13)  Bbb    -0.0384    -5.147    -1.836    -1.717  0.9033 -0.2766 -0.3279
              Bcc     0.0785    10.531     3.758     3.513  0.2225  0.9556 -0.1933
 
              Baa    -0.0025    -0.338    -0.120    -0.113  0.3115  0.8928 -0.3253
   145 C(13)  Bbb    -0.0016    -0.211    -0.075    -0.070 -0.5466  0.4484  0.7072
              Bcc     0.0041     0.549     0.196     0.183  0.7773 -0.0425  0.6277
 
              Baa    -0.0016    -0.208    -0.074    -0.069  0.1550 -0.0994  0.9829
   146 C(13)  Bbb     0.0002     0.033     0.012     0.011  0.9838  0.1061 -0.1444
              Bcc     0.0013     0.175     0.062     0.058 -0.0899  0.9894  0.1143
 
              Baa    -0.0008    -0.113    -0.040    -0.038  0.2019  0.9783 -0.0477
   147 C(13)  Bbb    -0.0005    -0.071    -0.026    -0.024 -0.3285  0.1135  0.9376
              Bcc     0.0014     0.184     0.066     0.061  0.9227 -0.1736  0.3443
 
              Baa    -0.0011    -0.146    -0.052    -0.049  0.1780  0.9246 -0.3368
   148 C(13)  Bbb    -0.0005    -0.073    -0.026    -0.024 -0.5630  0.3764  0.7357
              Bcc     0.0016     0.219     0.078     0.073  0.8070  0.0587  0.5876
 
              Baa    -0.0008    -0.422    -0.150    -0.141  0.0359  0.9620 -0.2705
   149 H(1)   Bbb    -0.0006    -0.310    -0.111    -0.104  0.5888  0.1984  0.7836
              Bcc     0.0014     0.732     0.261     0.244  0.8075 -0.1874 -0.5593
 
              Baa    -0.0009    -0.473    -0.169    -0.158  0.1797 -0.0486  0.9825
   150 H(1)   Bbb    -0.0004    -0.231    -0.082    -0.077  0.6767  0.7310 -0.0876
              Bcc     0.0013     0.704     0.251     0.235  0.7140 -0.6806 -0.1643
 
              Baa    -0.0003    -0.168    -0.060    -0.056  0.2550  0.8991 -0.3559
   151 H(1)   Bbb    -0.0002    -0.093    -0.033    -0.031 -0.5455  0.4376  0.7148
              Bcc     0.0005     0.261     0.093     0.087  0.7984  0.0119  0.6020
 
              Baa    -0.0004    -0.228    -0.081    -0.076  0.6024  0.7896 -0.1167
   152 H(1)   Bbb    -0.0003    -0.149    -0.053    -0.050 -0.3985  0.4241  0.8132
              Bcc     0.0007     0.378     0.135     0.126  0.6916 -0.4434  0.5702
 
              Baa    -0.0003    -0.183    -0.065    -0.061 -0.2364 -0.6336  0.7367
   153 H(1)   Bbb    -0.0003    -0.145    -0.052    -0.048  0.0291  0.7532  0.6571
              Bcc     0.0006     0.327     0.117     0.109  0.9712 -0.1768  0.1596
 
              Baa    -0.0005    -0.254    -0.091    -0.085 -0.0563 -0.3778  0.9242
   154 H(1)   Bbb    -0.0004    -0.212    -0.076    -0.071 -0.2976  0.8899  0.3456
              Bcc     0.0009     0.466     0.166     0.155  0.9530  0.2556  0.1625
 
              Baa    -0.0011    -0.144    -0.052    -0.048  0.2523  0.9537 -0.1637
   155 C(13)  Bbb    -0.0003    -0.046    -0.017    -0.016 -0.0532  0.1825  0.9818
              Bcc     0.0014     0.191     0.068     0.064  0.9662 -0.2390  0.0968
 
              Baa    -0.0010    -0.536    -0.191    -0.179  0.3897  0.9031 -0.1805
   156 H(1)   Bbb    -0.0006    -0.319    -0.114    -0.106  0.7866 -0.4283 -0.4447
              Bcc     0.0016     0.855     0.305     0.285  0.4789 -0.0313  0.8773
 
              Baa    -0.0006    -0.324    -0.116    -0.108  0.5193  0.8265  0.2175
   157 H(1)   Bbb    -0.0003    -0.180    -0.064    -0.060 -0.6704  0.2361  0.7034
              Bcc     0.0009     0.504     0.180     0.168  0.5300 -0.5111  0.6767
 
              Baa    -0.0004    -0.219    -0.078    -0.073  0.2108  0.9763 -0.0498
   158 H(1)   Bbb    -0.0002    -0.095    -0.034    -0.032  0.7779 -0.1984 -0.5962
              Bcc     0.0006     0.313     0.112     0.105  0.5920 -0.0869  0.8013
 
              Baa    -0.0008    -0.107    -0.038    -0.036  0.1418  0.9860 -0.0873
   159 C(13)  Bbb     0.0002     0.022     0.008     0.007 -0.3523  0.1327  0.9264
              Bcc     0.0006     0.085     0.030     0.028  0.9251 -0.1006  0.3662
 
              Baa    -0.0006    -0.323    -0.115    -0.108 -0.4385  0.8167 -0.3750
   160 H(1)   Bbb    -0.0004    -0.240    -0.086    -0.080 -0.6046  0.0407  0.7955
              Bcc     0.0011     0.563     0.201     0.188  0.6650  0.5756  0.4760
 
              Baa    -0.0003    -0.166    -0.059    -0.055 -0.0383  0.8056 -0.5912
   161 H(1)   Bbb    -0.0002    -0.080    -0.029    -0.027  0.6635 -0.4219 -0.6178
              Bcc     0.0005     0.246     0.088     0.082  0.7472  0.4160  0.5184
 
              Baa    -0.0005    -0.265    -0.095    -0.089  0.0799 -0.6315  0.7712
   162 H(1)   Bbb    -0.0002    -0.119    -0.043    -0.040  0.6700 -0.5388 -0.5106
              Bcc     0.0007     0.385     0.137     0.128  0.7380  0.5575  0.3801
 
              Baa    -0.0015    -0.203    -0.072    -0.068 -0.4098  0.8940 -0.1813
   163 C(13)  Bbb     0.0003     0.038     0.014     0.013 -0.2304  0.0909  0.9689
              Bcc     0.0012     0.164     0.059     0.055  0.8826  0.4388  0.1687
 
              Baa    -0.0008    -0.442    -0.158    -0.147  0.3768  0.9258 -0.0307
   164 H(1)   Bbb    -0.0005    -0.264    -0.094    -0.088  0.9262 -0.3770 -0.0041
              Bcc     0.0013     0.706     0.252     0.235  0.0154  0.0269  0.9995
 
              Baa    -0.0009    -0.458    -0.164    -0.153 -0.4343 -0.6035  0.6687
   165 H(1)   Bbb    -0.0003    -0.140    -0.050    -0.047  0.8501 -0.5201  0.0827
              Bcc     0.0011     0.599     0.214     0.200  0.2979  0.6044  0.7389
 
              Baa    -0.0012    -0.641    -0.229    -0.214  0.3501  0.8997 -0.2607
   166 H(1)   Bbb    -0.0001    -0.035    -0.013    -0.012  0.8897 -0.4064 -0.2078
              Bcc     0.0013     0.676     0.241     0.226  0.2929  0.1592  0.9428
 
              Baa    -0.0001    -0.039    -0.014    -0.013  0.1255  0.9426 -0.3095
   167 H(1)   Bbb    -0.0001    -0.037    -0.013    -0.012  0.1755  0.2859  0.9420
              Bcc     0.0001     0.076     0.027     0.025  0.9764 -0.1726 -0.1296
 

 ---------------------------------------------------------------------------------


 This type of calculation cannot be archived.


 NATURE GIVES TO EVERY TIME AND SEASON SOME BEAUTY OF ITS OWN.

                                                    --DICKENS
 Job cpu time:  0 days  0 hours 10 minutes 53.4 seconds.
 File lengths (MBytes):  RWF=    431 Int=      0 D2E=      0 Chk=    196 Scr=      1
 Normal termination of Gaussian 03 at Wed Mar 15 12:38:31 2006.
