 Entering Gaussian System, Link 0=g03
 Input=pfdyad_hyperfine.com
 Output=pfdyad_hyperfine.log
 Initial command:
 /home/konrad/system/software//g03/l1.exe /scratch/Gau-4006.inp -scrdir=/scratch/
 Entering Link 1 = /home/konrad/system/software//g03/l1.exe PID=      4007.
  
 Copyright (c) 1988,1990,1992,1993,1995,1998,2003,2004, Gaussian, Inc.
                  All Rights Reserved.
  
 This is the Gaussian(R) 03 program.  It is based on the
 the Gaussian(R) 98 system (copyright 1998, Gaussian, Inc.),
 the Gaussian(R) 94 system (copyright 1995, Gaussian, Inc.),
 the Gaussian 92(TM) system (copyright 1992, Gaussian, Inc.),
 the Gaussian 90(TM) system (copyright 1990, Gaussian, Inc.),
 the Gaussian 88(TM) system (copyright 1988, Gaussian, Inc.),
 the Gaussian 86(TM) system (copyright 1986, Carnegie Mellon
 University), and the Gaussian 82(TM) system (copyright 1983,
 Carnegie Mellon University). Gaussian is a federally registered
 trademark of Gaussian, Inc.
  
 This software contains proprietary and confidential information,
 including trade secrets, belonging to Gaussian, Inc.
  
 This software is provided under written license and may be
 used, copied, transmitted, or stored only in accord with that
 written license.
  
 The following legend is applicable only to US Government
 contracts under FAR:
  
                    RESTRICTED RIGHTS LEGEND
  
 Use, reproduction and disclosure by the US Government is
 subject to restrictions as set forth in subparagraphs (a)
 and (c) of the Commercial Computer Software - Restricted
 Rights clause in FAR 52.227-19.
  
 Gaussian, Inc.
 340 Quinnipiac St., Bldg. 40, Wallingford CT 06492
  
  
 ---------------------------------------------------------------
 Warning -- This program may not be used in any manner that
 competes with the business of Gaussian, Inc. or will provide
 assistance to any competitor of Gaussian, Inc.  The licensee
 of this program is prohibited from giving any competitor of
 Gaussian, Inc. access to this program.  By using this program,
 the user acknowledges that Gaussian, Inc. is engaged in the
 business of creating and licensing software in the field of
 computational chemistry and represents and warrants to the
 licensee that it is not a competitor of Gaussian, Inc. and that
 it will not use this program in any manner prohibited above.
 ---------------------------------------------------------------
  

 Cite this work as:
 Gaussian 03, Revision D.01,
 M. J. Frisch, G. W. Trucks, H. B. Schlegel, G. E. Scuseria, 
 M. A. Robb, J. R. Cheeseman, J. A. Montgomery, Jr., T. Vreven, 
 K. N. Kudin, J. C. Burant, J. M. Millam, S. S. Iyengar, J. Tomasi, 
 V. Barone, B. Mennucci, M. Cossi, G. Scalmani, N. Rega, 
 G. A. Petersson, H. Nakatsuji, M. Hada, M. Ehara, K. Toyota, 
 R. Fukuda, J. Hasegawa, M. Ishida, T. Nakajima, Y. Honda, O. Kitao, 
 H. Nakai, M. Klene, X. Li, J. E. Knox, H. P. Hratchian, J. B. Cross, 
 V. Bakken, C. Adamo, J. Jaramillo, R. Gomperts, R. E. Stratmann, 
 O. Yazyev, A. J. Austin, R. Cammi, C. Pomelli, J. W. Ochterski, 
 P. Y. Ayala, K. Morokuma, G. A. Voth, P. Salvador, J. J. Dannenberg, 
 V. G. Zakrzewski, S. Dapprich, A. D. Daniels, M. C. Strain, 
 O. Farkas, D. K. Malick, A. D. Rabuck, K. Raghavachari, 
 J. B. Foresman, J. V. Ortiz, Q. Cui, A. G. Baboul, S. Clifford, 
 J. Cioslowski, B. B. Stefanov, G. Liu, A. Liashenko, P. Piskorz, 
 I. Komaromi, R. L. Martin, D. J. Fox, T. Keith, M. A. Al-Laham, 
 C. Y. Peng, A. Nanayakkara, M. Challacombe, P. M. W. Gill, 
 B. Johnson, W. Chen, M. W. Wong, C. Gonzalez, and J. A. Pople, 
 Gaussian, Inc., Wallingford CT, 2004.
 
 ******************************************
 Gaussian 03:  AM64L-G03RevD.01 13-Oct-2005
                17-Jun-2006 
 ******************************************
 %Chk=/scratch/pfdyad.chk
 %RWF=/scratch/pfdyad.rwf
 %D2E=/scratch/pfdyad.d2e
 %Int=/scratch/pfdyad.int
 %Mem=4GB
 %NProcShared=8
 Will use up to    8 processors via shared memory.
 ----------------------------------------------------------------------
 #p ub3lyp/EPR-II guess=mix geom=connectivity scf=(restart,tight,novara
 cc,noincfock,xqc) integral(grid=ultrafine) pop=minimal iop(6/82=1)
 ----------------------------------------------------------------------
 1/38=1,57=2/1;
 2/17=6,18=5,40=1/2;
 3/5=21,11=2,16=1,25=1,30=1,74=-5,75=5/1,2,3;
 4/5=7,7=2,9=2,13=1/1;
 5/5=100002,8=3,13=1,32=2,38=1/2,8;
 6/7=2,8=2,9=2,10=2,28=1,82=1/1;
 99/5=1,9=1/99;
 Leave Link    1 at Sat Jun 17 08:11:31 2006, MaxMem=  536870912 cpu:       0.4
 (Enter /home/konrad/system/software//g03/l101.exe)
 ----------------------------
 PF dyad hyperfine couplings.
 ----------------------------
 Symbolic Z-matrix:
 Charge = -1 Multiplicity = 2
 C
 C                    1    B1
 C                    2    B2       1    A1
 C                    3    B3       2    A2       1    D1       0
 C                    4    B4       3    A3       2    D2       0
 C                    1    B5       2    A4       3    D3       0
 C                    1    B6       6    A5       5    D4       0
 C                    7    B7       1    A6       6    D5       0
 C                    8    B8       7    A7       1    D6       0
 C                    9    B9       8    A8       7    D7       0
 C                    3    B10      2    A9       1    D8       0
 C                    4    B11      3    A10      2    D9       0
 C                    12   B12      4    A11      3    D10      0
 C                    13   B13      12   A12      4    D11      0
 C                    14   B14      13   A13      12   D12      0
 C                    15   B15      14   A14      13   D13      0
 C                    6    B16      1    A15      2    D14      0
 C                    17   B17      6    A16      1    D15      0
 C                    7    B18      1    A17      6    D16      0
 C                    8    B19      7    A18      1    D17      0
 C                    20   B20      8    A19      7    D18      0
 C                    21   B21      20   A20      8    D19      0
 C                    22   B22      21   A21      20   D20      0
 C                    18   B23      17   A22      6    D21      0
 C                    24   B24      18   A23      17   D22      0
 C                    16   B25      15   A24      14   D23      0
 C                    26   B26      16   A25      15   D24      0
 C                    14   B27      13   A26      12   D25      0
 C                    11   B28      3    A27      2    D26      0
 C                    28   B29      14   A28      13   D27      0
 C                    30   B30      28   A29      14   D28      0
 C                    31   B31      30   A30      28   D29      0
 C                    32   B32      31   A31      30   D30      0
 C                    33   B33      32   A32      31   D31      0
 C                    30   B34      28   A33      14   D32      0
 C                    35   B35      30   A34      28   D33      0
 C                    30   B36      28   A35      14   D34      0
 C                    37   B37      30   A36      28   D35      0
 C                    38   B38      37   A37      30   D36      0
 C                    39   B39      38   A38      37   D37      0
 C                    32   B40      31   A39      30   D38      0
 C                    41   B41      32   A40      31   D39      0
 C                    42   B42      41   A41      32   D40      0
 C                    43   B43      42   A42      41   D41      0
 C                    44   B44      43   A43      42   D42      0
 C                    34   B45      33   A44      32   D43      0
 C                    46   B46      34   A45      33   D44      0
 C                    35   B47      30   A46      28   D45      0
 C                    36   B48      35   A47      30   D46      0
 C                    49   B49      36   A48      35   D47      0
 C                    50   B50      49   A49      36   D48      0
 C                    23   B51      22   A50      21   D49      0
 C                    47   B52      46   A51      34   D50      0
 C                    53   B53      47   A52      46   D51      0
 C                    45   B54      44   A53      43   D52      0
 C                    55   B55      45   A54      44   D53      0
 C                    56   B56      55   A55      45   D54      0
 C                    29   B57      11   A56      3    D55      0
 C                    11   B58      3    A57      2    D56      0
 C                    34   B59      33   A58      32   D57      0
 C                    28   B60      14   A59      13   D58      0
 H                    61   B61      28   A60      14   D59      0
 C                    27   B62      26   A61      16   D60      0
 H                    63   B63      27   A62      26   D61      0
 H                    63   B64      27   A63      26   D62      0
 N                    63   B65      27   A64      26   D63      0
 C                    66   B66      63   A65      27   D64      0
 H                    67   B67      66   A66      63   D65      0
 H                    67   B68      66   A67      63   D66      0
 H                    67   B69      66   A68      63   D67      0
 C                    61   B70      28   A69      14   D68      0
 C                    71   B71      61   A70      28   D69      0
 C                    71   B72      61   A71      28   D70      0
 C                    72   B73      71   A72      61   D71      0
 H                    72   B74      71   A73      61   D72      0
 C                    73   B75      71   A74      61   D73      0
 H                    73   B76      71   A75      61   D74      0
 C                    74   B77      72   A76      71   D75      0
 H                    74   B78      72   A77      71   D76      0
 H                    76   B79      73   A78      71   D77      0
 H                    78   B80      74   A79      72   D78      0
 C                    78   B81      74   A80      72   D79      0
 C                    82   B82      78   A81      74   D80      0
 H                    82   B83      78   A82      74   D81      0
 H                    82   B84      78   A83      74   D82      0
 C                    83   B85      82   A84      78   D83      0
 C                    83   B86      82   A85      78   D84      0
 C                    86   B87      83   A86      82   D85      0
 N                    86   B88      83   A87      82   D86      0
 C                    89   B89      86   A88      83   D87      0
 C                    87   B90      83   A89      82   D88      0
 C                    88   B91      86   A90      83   D89      0
 C                    90   B92      89   A91      86   D90      0
 H                    91   B93      87   A92      83   D91      0
 H                    91   B94      87   A93      83   D92      0
 H                    91   B95      87   A94      83   D93      0
 C                    92   B96      88   A95      86   D94      0
 N                    92   B97      88   A96      86   D95      0
 H                    93   B98      90   A97      89   D96      0
 C                    93   B99      90   A98      89   D97      0
 C                    97   B100     92   A99      88   D98      0
 C                    97   B101     92   A100     88   D99      0
 C                    98   B102     92   A101     88   D100     0
 N                    100  B103     93   A102     90   D101     0
 C                    100  B104     93   A103     90   D102     0
 C                    101  B105     97   A104     92   D103     0
 H                    102  B106     97   A105     92   D104     0
 H                    102  B107     97   A106     92   D105     0
 H                    102  B108     97   A107     92   D106     0
 C                    103  B109     98   A108     92   D107     0
 C                    104  B110     100  A109     93   D108     0
 C                    105  B111     100  A110     93   D109     0
 C                    105  B112     100  A111     93   D110     0
 H                    106  B113     101  A112     97   D111     0
 H                    106  B114     101  A113     97   D112     0
 H                    106  B115     101  A114     97   D113     0
 H                    110  B116     103  A115     98   D114     0
 C                    110  B117     103  A116     98   D115     0
 C                    111  B118     104  A117     100  D116     0
 C                    112  B119     105  A118     100  D117     0
 H                    113  B120     105  A119     100  D118     0
 H                    113  B121     105  A120     100  D119     0
 H                    113  B122     105  A121     100  D120     0
 C                    118  B123     110  A122     103  D121     0
 N                    118  B124     110  A123     103  D122     0
 C                    125  B125     118  A124     110  D123     0
 H                    120  B126     112  A125     105  D124     0
 H                    120  B127     112  A126     105  D125     0
 H                    120  B128     112  A127     105  D126     0
 C                    124  B129     118  A128     110  D127     0
 C                    124  B130     118  A129     110  D128     0
 C                    130  B131     124  A130     118  D129     0
 H                    131  B132     124  A131     118  D130     0
 H                    131  B133     124  A132     118  D131     0
 H                    131  B134     124  A133     118  D132     0
 H                    132  B135     130  A134     124  D133     0
 H                    132  B136     130  A135     124  D134     0
 H                    132  B137     130  A136     124  D135     0
 C                    119  B138     111  A137     104  D136     0
 C                    139  B139     119  A138     111  D137     0
 C                    139  B140     119  A139     111  D138     0
 C                    140  B141     139  A140     119  D139     0
 H                    140  B142     139  A141     119  D140     0
 C                    141  B143     139  A142     119  D141     0
 H                    141  B144     139  A143     119  D142     0
 C                    144  B145     141  A144     139  D143     0
 H                    142  B146     140  A145     139  D144     0
 H                    144  B147     141  A146     139  D145     0
 H                    104  B148     100  A147     93   D146     0
 H                    98   B149     92   A148     88   D147     0
 H                    146  B150     144  A149     141  D148     0
       Variables:
  B1                    1.44732                  
  B2                    1.40065                  
  B3                    1.45711                  
  B4                    1.40287                  
  B5                    1.41218                  
  B6                    1.44748                  
  B7                    1.45575                  
  B8                    1.45091                  
  B9                    1.39857                  
  B10                   1.4479                   
  B11                   1.43639                  
  B12                   1.40724                  
  B13                   1.43738                  
  B14                   1.37855                  
  B15                   1.47616                  
  B16                   1.44495                  
  B17                   1.40327                  
  B18                   1.40039                  
  B19                   1.39865                  
  B20                   1.45055                  
  B21                   1.40723                  
  B22                   1.45143                  
  B23                   1.43634                  
  B24                   1.40727                  
  B25                   1.37695                  
  B26                   1.53489                  
  B27                   1.53444                  
  B28                   1.45153                  
  B29                   3.844                    
  B30                   1.40267                  
  B31                   1.45768                  
  B32                   1.40137                  
  B33                   1.44684                  
  B34                   2.33698                  
  B35                   1.45371                  
  B36                   1.45386                  
  B37                   1.38234                  
  B38                   1.43462                  
  B39                   1.40979                  
  B40                   1.447                    
  B41                   1.40556                  
  B42                   1.45259                  
  B43                   1.39689                  
  B44                   1.45296                  
  B45                   1.44729                  
  B46                   1.40118                  
  B47                   1.4029                   
  B48                   1.38091                  
  B49                   1.43408                  
  B50                   1.40967                  
  B51                   1.39482                  
  B52                   1.44743                  
  B53                   1.40514                  
  B54                   1.39733                  
  B55                   1.45366                  
  B56                   1.39574                  
  B57                   1.39473                  
  B58                   1.40787                  
  B59                   1.41257                  
  B60                   1.58498                  
  B61                   1.10846                  
  B62                   1.55269                  
  B63                   1.10762                  
  B64                   1.09443                  
  B65                   1.4557                   
  B66                   1.45422                  
  B67                   1.09487                  
  B68                   1.09281                  
  B69                   1.10771                  
  B70                   1.51435                  
  B71                   1.39887                  
  B72                   1.40229                  
  B73                   1.39575                  
  B74                   1.08687                  
  B75                   1.39357                  
  B76                   1.08464                  
  B77                   1.40029                  
  B78                   1.0865                   
  B79                   1.08664                  
  B80                   4.09429                  
  B81                   3.00869                  
  B82                   1.50158                  
  B83                   1.09305                  
  B84                   1.09348                  
  B85                   1.48437                  
  B86                   1.36576                  
  B87                   1.42079                  
  B88                   1.36808                  
  B89                   1.35667                  
  B90                   1.49996                  
  B91                   1.41164                  
  B92                   1.39873                  
  B93                   1.09704                  
  B94                   1.09204                  
  B95                   1.09721                  
  B96                   1.45807                  
  B97                   1.37686                  
  B98                   1.08447                  
  B99                   1.3932                   
  B100                  1.3805                   
  B101                  1.50035                  
  B102                  1.3665                   
  B103                  1.36758                  
  B104                  1.44073                  
  B105                  1.50021                  
  B106                  1.09091                  
  B107                  1.09184                  
  B108                  1.0926                   
  B109                  1.39244                  
  B110                  1.37662                  
  B111                  1.38181                  
  B112                  1.50063                  
  B113                  1.09637                  
  B114                  1.09062                  
  B115                  1.09648                  
  B116                  1.08433                  
  B117                  1.39941                  
  B118                  1.41296                  
  B119                  1.50247                  
  B120                  1.0964                   
  B121                  1.09145                  
  B122                  1.09641                  
  B123                  1.46336                  
  B124                  1.35662                  
  B125                  1.36826                  
  B126                  1.0922                   
  B127                  1.0931                   
  B128                  1.09331                  
  B129                  1.36611                  
  B130                  1.49992                  
  B131                  1.50242                  
  B132                  1.0922                   
  B133                  1.09683                  
  B134                  1.09682                  
  B135                  1.09366                  
  B136                  1.09296                  
  B137                  1.09362                  
  B138                  1.49994                  
  B139                  1.40228                  
  B140                  1.40217                  
  B141                  1.39583                  
  B142                  1.08632                  
  B143                  1.39582                  
  B144                  1.08635                  
  B145                  1.39609                  
  B146                  1.08653                  
  B147                  1.08655                  
  B148                  1.02237                  
  B149                  1.02156                  
  B150                  1.08628                  
  A1                  120.4872                   
  A2                  119.67012                  
  A3                  119.93155                  
  A4                  119.71372                  
  A5                  119.64622                  
  A6                  108.30907                  
  A7                  107.76841                  
  A8                  120.18966                  
  A9                  120.35222                  
  A10                 108.21129                  
  A11                 119.35286                  
  A12                 121.01684                  
  A13                 119.44842                  
  A14                 120.66114                  
  A15                 120.03151                  
  A16                 120.21288                  
  A17                 120.47008                  
  A18                 120.10138                  
  A19                 120.32825                  
  A20                 119.51957                  
  A21                 119.78886                  
  A22                 119.68409                  
  A23                 119.37939                  
  A24                 120.34246                  
  A25                 124.11744                  
  A26                 109.91915                  
  A27                 107.55888                  
  A28                 104.73335                  
  A29                  98.86604                  
  A30                 119.87674                  
  A31                 119.74434                  
  A32                 120.46383                  
  A33                  84.65238                  
  A34                  72.67968                  
  A35                  23.07582                  
  A36                 120.1656                   
  A37                 119.61114                  
  A38                 121.02411                  
  A39                 107.98829                  
  A40                 120.2391                   
  A41                 119.42264                  
  A42                 120.34059                  
  A43                 120.12897                  
  A44                 107.93825                  
  A45                 120.46763                  
  A46                 144.40464                  
  A47                 120.05097                  
  A48                 119.8565                   
  A49                 120.89249                  
  A50                 120.26299                  
  A51                 120.30235                  
  A52                 120.21659                  
  A53                 120.07782                  
  A54                 119.78168                  
  A55                 120.12085                  
  A56                 120.30075                  
  A57                 120.11478                  
  A58                 119.65784                  
  A59                 114.24174                  
  A60                 106.1606                   
  A61                 112.52305                  
  A62                 109.26521                  
  A63                 112.1005                   
  A64                 105.33658                  
  A65                 112.6611                   
  A66                 109.38512                  
  A67                 110.18674                  
  A68                 112.80795                  
  A69                 115.65858                  
  A70                 120.34943                  
  A71                 121.33007                  
  A72                 120.97952                  
  A73                 119.37662                  
  A74                 120.72642                  
  A75                 118.78474                  
  A76                 120.74869                  
  A77                 119.90379                  
  A78                 119.79567                  
  A79                  91.80504                  
  A80                  93.32714                  
  A81                  77.20344                  
  A82                  66.45671                  
  A83                  70.23311                  
  A84                 129.43607                  
  A85                 125.04874                  
  A86                 126.94589                  
  A87                 110.37622                  
  A88                 106.37201                  
  A89                 128.84025                  
  A90                 123.15138                  
  A91                 127.50105                  
  A92                 111.66025                  
  A93                 111.87398                  
  A94                 111.6114                   
  A95                 130.62252                  
  A96                 122.60669                  
  A97                 114.29193                  
  A98                 132.64023                  
  A99                 106.9604                   
  A100                128.08298                  
  A101                110.95303                  
  A102                128.8712                   
  A103                124.33924                  
  A104                128.17005                  
  A105                110.88919                  
  A106                112.13781                  
  A107                112.40025                  
  A108                128.71893                  
  A109                111.17333                  
  A110                108.33382                  
  A111                123.35585                  
  A112                111.52532                  
  A113                111.72339                  
  A114                111.41514                  
  A115                112.98553                  
  A116                132.64634                  
  A117                122.52141                  
  A118                124.74178                  
  A119                111.48787                  
  A120                111.92138                  
  A121                111.48627                  
  A122                121.30228                  
  A123                127.63915                  
  A124                106.41414                  
  A125                110.38232                  
  A126                112.20819                  
  A127                112.26094                  
  A128                106.62586                  
  A129                124.49149                  
  A130                124.96513                  
  A131                111.9856                   
  A132                111.56495                  
  A133                111.59764                  
  A134                112.48995                  
  A135                110.28073                  
  A136                112.3444                   
  A137                117.33723                  
  A138                120.72103                  
  A139                120.83147                  
  A140                120.8596                   
  A141                119.02186                  
  A142                120.84527                  
  A143                119.02626                  
  A144                120.13707                  
  A145                119.79135                  
  A146                119.78868                  
  A147                129.09165                  
  A148                119.87192                  
  A149                120.19774                  
  D1                   -0.39854                  
  D2                   -0.66189                  
  D3                    1.00614                  
  D4                 -137.50249                  
  D5                  141.98874                  
  D6                   -0.33032                  
  D7                 -142.69249                  
  D8                 -138.91639                  
  D9                 -142.89581                  
  D10                 141.77518                  
  D11                   2.75583                  
  D12                  -3.32657                  
  D13                -136.6351                   
  D14                 137.62965                  
  D15                   0.31736                  
  D16                  -0.99517                  
  D17                -143.0764                   
  D18                  -0.33079                  
  D19                   0.14365                  
  D20                 137.36097                  
  D21                -138.89337                  
  D22                   0.54999                  
  D23                   0.33926                  
  D24                 -12.54611                  
  D25                -156.35195                  
  D26                 141.96052                  
  D27                  36.77067                  
  D28                 -27.52685                  
  D29                 129.60451                  
  D30                   0.57122                  
  D31                   0.44301                  
  D32                 116.79412                  
  D33                  20.19493                  
  D34                 174.14454                  
  D35                  24.6547                   
  D36                  -1.84929                  
  D37                   3.40585                  
  D38                -142.2178                   
  D39                 142.38483                  
  D40                   0.11181                  
  D41                   0.1381                   
  D42                -138.52828                  
  D43                -142.45188                  
  D44                 142.42292                  
  D45                 -97.62353                  
  D46                -142.95578                  
  D47                   1.3676                   
  D48                  -2.97789                  
  D49                   0.3297                   
  D50                -138.66783                  
  D51                   0.19165                  
  D52                   0.03116                  
  D53                   0.15791                  
  D54                  -0.19656                  
  D55                -142.19059                  
  D56                   0.25425                  
  D57                  -0.99353                  
  D58                -102.98121                  
  D59                 146.99469                  
  D60                -105.71941                  
  D61                -141.90804                  
  D62                 -22.48729                  
  D63                  98.36824                  
  D64                 169.73315                  
  D65                  60.78136                  
  D66                 179.60472                  
  D67                 -59.40138                  
  D68                  27.72551                  
  D69                  98.34886                  
  D70                 -81.06008                  
  D71                -179.17297                  
  D72                   0.4774                   
  D73                 179.57275                  
  D74                  -0.57976                  
  D75                  -0.52079                  
  D76                 179.78076                  
  D77                 179.89956                  
  D78                 -89.69914                  
  D79                 -91.12711                  
  D80                -121.46402                  
  D81                   0.0135                   
  D82                 118.96039                  
  D83                   0.88553                  
  D84                -179.4389                   
  D85                  -0.92118                  
  D86                 179.27446                  
  D87                   0.44419                  
  D88                   0.41396                  
  D89                 179.41377                  
  D90                 179.52204                  
  D91                -120.77626                  
  D92                  -0.54951                  
  D93                 119.55561                  
  D94                 179.08071                  
  D95                  -1.22869                  
  D96                -178.99682                  
  D97                   1.08128                  
  D98                 179.18737                  
  D99                  -1.65535                  
  D100               -179.2487                   
  D101                  0.78615                  
  D102               -179.60248                  
  D103               -179.82961                  
  D104               -176.17847                  
  D105                -56.32733                  
  D106                 63.51401                  
  D107                179.58721                  
  D108                179.47391                  
  D109               -179.63769                  
  D110                  0.46344                  
  D111               -119.85314                  
  D112                  0.37244                  
  D113                120.43965                  
  D114               -179.05417                  
  D115                  1.16289                  
  D116               -179.56173                  
  D117               -179.69281                  
  D118                 60.05243                  
  D119               -179.67727                  
  D120                -59.49998                  
  D121               -179.63107                  
  D122                  0.81166                  
  D123                179.28579                  
  D124                  1.38892                  
  D125                121.34881                  
  D126               -118.64456                  
  D127               -179.52243                  
  D128                  0.58122                  
  D129               -179.49637                  
  D130               -179.89121                  
  D131                -59.71175                  
  D132                 59.81381                  
  D133               -119.1591                   
  D134                  0.84617                  
  D135                120.71695                  
  D136                179.73071                  
  D137                 90.95741                  
  D138                -88.65961                  
  D139               -179.62523                  
  D140                  0.41292                  
  D141                179.64515                  
  D142                 -0.44749                  
  D143                 -0.0389                   
  D144               -179.98195                  
  D145                179.91703                  
  D146                 -0.81078                  
  D147                  1.10998                  
  D148                179.99539                  
 
                    Isotopes and Nuclear Properties:
 (Nuclear quadrupole moments (NQMom) in fm**2, nuclear magnetic moments (NMagM)
  in nuclear magnetons)

  Atom         1           2           3           4           5           6           7           8           9          10
 IAtWgt=          12          12          12          12          12          12          12          12          12          12
 AtmWgt=  12.0000000  12.0000000  12.0000000  12.0000000  12.0000000  12.0000000  12.0000000  12.0000000  12.0000000  12.0000000
 NucSpn=           0           0           0           0           0           0           0           0           0           0
 AtZEff=   0.0000000   0.0000000   0.0000000   0.0000000   0.0000000   0.0000000   0.0000000   0.0000000   0.0000000   0.0000000
 NQMom=    0.0000000   0.0000000   0.0000000   0.0000000   0.0000000   0.0000000   0.0000000   0.0000000   0.0000000   0.0000000
 NMagM=    0.0000000   0.0000000   0.0000000   0.0000000   0.0000000   0.0000000   0.0000000   0.0000000   0.0000000   0.0000000

  Atom        11          12          13          14          15          16          17          18          19          20
 IAtWgt=          12          12          12          12          12          12          12          12          12          12
 AtmWgt=  12.0000000  12.0000000  12.0000000  12.0000000  12.0000000  12.0000000  12.0000000  12.0000000  12.0000000  12.0000000
 NucSpn=           0           0           0           0           0           0           0           0           0           0
 AtZEff=   0.0000000   0.0000000   0.0000000   0.0000000   0.0000000   0.0000000   0.0000000   0.0000000   0.0000000   0.0000000
 NQMom=    0.0000000   0.0000000   0.0000000   0.0000000   0.0000000   0.0000000   0.0000000   0.0000000   0.0000000   0.0000000
 NMagM=    0.0000000   0.0000000   0.0000000   0.0000000   0.0000000   0.0000000   0.0000000   0.0000000   0.0000000   0.0000000

  Atom        21          22          23          24          25          26          27          28          29          30
 IAtWgt=          12          12          12          12          12          12          12          12          12          12
 AtmWgt=  12.0000000  12.0000000  12.0000000  12.0000000  12.0000000  12.0000000  12.0000000  12.0000000  12.0000000  12.0000000
 NucSpn=           0           0           0           0           0           0           0           0           0           0
 AtZEff=   0.0000000   0.0000000   0.0000000   0.0000000   0.0000000   0.0000000   0.0000000   0.0000000   0.0000000   0.0000000
 NQMom=    0.0000000   0.0000000   0.0000000   0.0000000   0.0000000   0.0000000   0.0000000   0.0000000   0.0000000   0.0000000
 NMagM=    0.0000000   0.0000000   0.0000000   0.0000000   0.0000000   0.0000000   0.0000000   0.0000000   0.0000000   0.0000000

  Atom        31          32          33          34          35          36          37          38          39          40
 IAtWgt=          12          12          12          12          12          12          12          12          12          12
 AtmWgt=  12.0000000  12.0000000  12.0000000  12.0000000  12.0000000  12.0000000  12.0000000  12.0000000  12.0000000  12.0000000
 NucSpn=           0           0           0           0           0           0           0           0           0           0
 AtZEff=   0.0000000   0.0000000   0.0000000   0.0000000   0.0000000   0.0000000   0.0000000   0.0000000   0.0000000   0.0000000
 NQMom=    0.0000000   0.0000000   0.0000000   0.0000000   0.0000000   0.0000000   0.0000000   0.0000000   0.0000000   0.0000000
 NMagM=    0.0000000   0.0000000   0.0000000   0.0000000   0.0000000   0.0000000   0.0000000   0.0000000   0.0000000   0.0000000

  Atom        41          42          43          44          45          46          47          48          49          50
 IAtWgt=          12          12          12          12          12          12          12          12          12          12
 AtmWgt=  12.0000000  12.0000000  12.0000000  12.0000000  12.0000000  12.0000000  12.0000000  12.0000000  12.0000000  12.0000000
 NucSpn=           0           0           0           0           0           0           0           0           0           0
 AtZEff=   0.0000000   0.0000000   0.0000000   0.0000000   0.0000000   0.0000000   0.0000000   0.0000000   0.0000000   0.0000000
 NQMom=    0.0000000   0.0000000   0.0000000   0.0000000   0.0000000   0.0000000   0.0000000   0.0000000   0.0000000   0.0000000
 NMagM=    0.0000000   0.0000000   0.0000000   0.0000000   0.0000000   0.0000000   0.0000000   0.0000000   0.0000000   0.0000000

  Atom        51          52          53          54          55          56          57          58          59          60
 IAtWgt=          12          12          12          12          12          12          12          12          12          12
 AtmWgt=  12.0000000  12.0000000  12.0000000  12.0000000  12.0000000  12.0000000  12.0000000  12.0000000  12.0000000  12.0000000
 NucSpn=           0           0           0           0           0           0           0           0           0           0
 AtZEff=   0.0000000   0.0000000   0.0000000   0.0000000   0.0000000   0.0000000   0.0000000   0.0000000   0.0000000   0.0000000
 NQMom=    0.0000000   0.0000000   0.0000000   0.0000000   0.0000000   0.0000000   0.0000000   0.0000000   0.0000000   0.0000000
 NMagM=    0.0000000   0.0000000   0.0000000   0.0000000   0.0000000   0.0000000   0.0000000   0.0000000   0.0000000   0.0000000

  Atom        61          62          63          64          65          66          67          68          69          70
 IAtWgt=          12           1          12           1           1          14          12           1           1           1
 AtmWgt=  12.0000000   1.0078250  12.0000000   1.0078250   1.0078250  14.0030740  12.0000000   1.0078250   1.0078250   1.0078250
 NucSpn=           0           1           0           1           1           2           0           1           1           1
 AtZEff=   0.0000000   0.0000000   0.0000000   0.0000000   0.0000000   0.0000000   0.0000000   0.0000000   0.0000000   0.0000000
 NQMom=    0.0000000   0.0000000   0.0000000   0.0000000   0.0000000   2.0440000   0.0000000   0.0000000   0.0000000   0.0000000
 NMagM=    0.0000000   2.7928460   0.0000000   2.7928460   2.7928460   0.4037610   0.0000000   2.7928460   2.7928460   2.7928460

  Atom        71          72          73          74          75          76          77          78          79          80
 IAtWgt=          12          12          12          12           1          12           1          12           1           1
 AtmWgt=  12.0000000  12.0000000  12.0000000  12.0000000   1.0078250  12.0000000   1.0078250  12.0000000   1.0078250   1.0078250
 NucSpn=           0           0           0           0           1           0           1           0           1           1
 AtZEff=   0.0000000   0.0000000   0.0000000   0.0000000   0.0000000   0.0000000   0.0000000   0.0000000   0.0000000   0.0000000
 NQMom=    0.0000000   0.0000000   0.0000000   0.0000000   0.0000000   0.0000000   0.0000000   0.0000000   0.0000000   0.0000000
 NMagM=    0.0000000   0.0000000   0.0000000   0.0000000   2.7928460   0.0000000   2.7928460   0.0000000   2.7928460   2.7928460

  Atom        81          82          83          84          85          86          87          88          89          90
 IAtWgt=           1          12          12           1           1          12          12          12          14          12
 AtmWgt=   1.0078250  12.0000000  12.0000000   1.0078250   1.0078250  12.0000000  12.0000000  12.0000000  14.0030740  12.0000000
 NucSpn=           1           0           0           1           1           0           0           0           2           0
 AtZEff=   0.0000000   0.0000000   0.0000000   0.0000000   0.0000000   0.0000000   0.0000000   0.0000000   0.0000000   0.0000000
 NQMom=    0.0000000   0.0000000   0.0000000   0.0000000   0.0000000   0.0000000   0.0000000   0.0000000   2.0440000   0.0000000
 NMagM=    2.7928460   0.0000000   0.0000000   2.7928460   2.7928460   0.0000000   0.0000000   0.0000000   0.4037610   0.0000000

  Atom        91          92          93          94          95          96          97          98          99         100
 IAtWgt=          12          12          12           1           1           1          12          14           1          12
 AtmWgt=  12.0000000  12.0000000  12.0000000   1.0078250   1.0078250   1.0078250  12.0000000  14.0030740   1.0078250  12.0000000
 NucSpn=           0           0           0           1           1           1           0           2           1           0
 AtZEff=   0.0000000   0.0000000   0.0000000   0.0000000   0.0000000   0.0000000   0.0000000   0.0000000   0.0000000   0.0000000
 NQMom=    0.0000000   0.0000000   0.0000000   0.0000000   0.0000000   0.0000000   0.0000000   2.0440000   0.0000000   0.0000000
 NMagM=    0.0000000   0.0000000   0.0000000   2.7928460   2.7928460   2.7928460   0.0000000   0.4037610   2.7928460   0.0000000

  Atom       101         102         103         104         105         106         107         108         109         110
 IAtWgt=          12          12          12          14          12          12           1           1           1          12
 AtmWgt=  12.0000000  12.0000000  12.0000000  14.0030740  12.0000000  12.0000000   1.0078250   1.0078250   1.0078250  12.0000000
 NucSpn=           0           0           0           2           0           0           1           1           1           0
 AtZEff=   0.0000000   0.0000000   0.0000000   0.0000000   0.0000000   0.0000000   0.0000000   0.0000000   0.0000000   0.0000000
 NQMom=    0.0000000   0.0000000   0.0000000   2.0440000   0.0000000   0.0000000   0.0000000   0.0000000   0.0000000   0.0000000
 NMagM=    0.0000000   0.0000000   0.0000000   0.4037610   0.0000000   0.0000000   2.7928460   2.7928460   2.7928460   0.0000000

  Atom       111         112         113         114         115         116         117         118         119         120
 IAtWgt=          12          12          12           1           1           1           1          12          12          12
 AtmWgt=  12.0000000  12.0000000  12.0000000   1.0078250   1.0078250   1.0078250   1.0078250  12.0000000  12.0000000  12.0000000
 NucSpn=           0           0           0           1           1           1           1           0           0           0
 AtZEff=   0.0000000   0.0000000   0.0000000   0.0000000   0.0000000   0.0000000   0.0000000   0.0000000   0.0000000   0.0000000
 NQMom=    0.0000000   0.0000000   0.0000000   0.0000000   0.0000000   0.0000000   0.0000000   0.0000000   0.0000000   0.0000000
 NMagM=    0.0000000   0.0000000   0.0000000   2.7928460   2.7928460   2.7928460   2.7928460   0.0000000   0.0000000   0.0000000

  Atom       121         122         123         124         125         126         127         128         129         130
 IAtWgt=           1           1           1          12          14          12           1           1           1          12
 AtmWgt=   1.0078250   1.0078250   1.0078250  12.0000000  14.0030740  12.0000000   1.0078250   1.0078250   1.0078250  12.0000000
 NucSpn=           1           1           1           0           2           0           1           1           1           0
 AtZEff=   0.0000000   0.0000000   0.0000000   0.0000000   0.0000000   0.0000000   0.0000000   0.0000000   0.0000000   0.0000000
 NQMom=    0.0000000   0.0000000   0.0000000   0.0000000   2.0440000   0.0000000   0.0000000   0.0000000   0.0000000   0.0000000
 NMagM=    2.7928460   2.7928460   2.7928460   0.0000000   0.4037610   0.0000000   2.7928460   2.7928460   2.7928460   0.0000000

  Atom       131         132         133         134         135         136         137         138         139         140
 IAtWgt=          12          12           1           1           1           1           1           1          12          12
 AtmWgt=  12.0000000  12.0000000   1.0078250   1.0078250   1.0078250   1.0078250   1.0078250   1.0078250  12.0000000  12.0000000
 NucSpn=           0           0           1           1           1           1           1           1           0           0
 AtZEff=   0.0000000   0.0000000   0.0000000   0.0000000   0.0000000   0.0000000   0.0000000   0.0000000   0.0000000   0.0000000
 NQMom=    0.0000000   0.0000000   0.0000000   0.0000000   0.0000000   0.0000000   0.0000000   0.0000000   0.0000000   0.0000000
 NMagM=    0.0000000   0.0000000   2.7928460   2.7928460   2.7928460   2.7928460   2.7928460   2.7928460   0.0000000   0.0000000

  Atom       141         142         143         144         145         146         147         148         149         150
 IAtWgt=          12          12           1          12           1          12           1           1           1           1
 AtmWgt=  12.0000000  12.0000000   1.0078250  12.0000000   1.0078250  12.0000000   1.0078250   1.0078250   1.0078250   1.0078250
 NucSpn=           0           0           1           0           1           0           1           1           1           1
 AtZEff=   0.0000000   0.0000000   0.0000000   0.0000000   0.0000000   0.0000000   0.0000000   0.0000000   0.0000000   0.0000000
 NQMom=    0.0000000   0.0000000   0.0000000   0.0000000   0.0000000   0.0000000   0.0000000   0.0000000   0.0000000   0.0000000
 NMagM=    0.0000000   0.0000000   2.7928460   0.0000000   2.7928460   0.0000000   2.7928460   2.7928460   2.7928460   2.7928460

  Atom       151
 IAtWgt=           1
 AtmWgt=   1.0078250
 NucSpn=           1
 AtZEff=   0.0000000
 NQMom=    0.0000000
 NMagM=    2.7928460
 Leave Link  101 at Sat Jun 17 08:11:39 2006, MaxMem=  536870912 cpu:       0.3
 (Enter /home/konrad/system/software//g03/l202.exe)
 Stoichiometry    C103H43N5(1-,2)
 Framework group  C1[X(C103H43N5)]
 Deg. of freedom   447
 Full point group                 C1
 Largest Abelian subgroup         C1      NOp   1
 Largest concise Abelian subgroup C1      NOp   1
                         Standard orientation:                         
 ---------------------------------------------------------------------
 Center     Atomic     Atomic              Coordinates (Angstroms)
 Number     Number      Type              X           Y           Z
 ---------------------------------------------------------------------
    1          6             0       -5.063493   -1.750574    3.304635
    2          6             0       -4.723602   -2.886586    2.474759
    3          6             0       -3.608506   -2.840068    1.628464
    4          6             0       -2.790926   -1.634992    1.578222
    5          6             0       -3.131502   -0.524735    2.365234
    6          6             0       -4.276820   -0.579352    3.244318
    7          6             0       -6.506533   -1.642819    3.339534
    8          6             0       -7.065249   -2.722595    2.538820
    9          6             0       -5.959568   -3.493787    2.002275
   10          6             0       -6.032053   -4.021052    0.708931
   11          6             0       -3.680817   -3.392232    0.291934
   12          6             0       -2.362126   -1.439693    0.221312
   13          6             0       -2.302123   -0.134801   -0.302133
   14          6             0       -2.606371    1.006521    0.516947
   15          6             0       -3.028925    0.815740    1.815193
   16          6             0       -4.151974    1.600732    2.364361
   17          6             0       -4.911857    0.718524    3.232639
   18          6             0       -6.310299    0.820946    3.287800
   19          6             0       -7.125137   -0.386479    3.334851
   20          6             0       -8.209761   -2.502677    1.765549
   21          6             0       -8.851780   -1.201957    1.760892
   22          6             0       -8.313057   -0.160027    2.538365
   23          6             0       -8.221083    1.178836    1.985516
   24          6             0       -6.985777    1.786136    2.466094
   25          6             0       -6.233499    2.608769    1.607168
   26          6             0       -4.798213    2.531517    1.582054
   27          6             0       -4.272498    3.034054    0.230405
   28          6             0       -3.039297    2.183781   -0.366877
   29          6             0       -2.923252   -2.517836   -0.584691
   30          6             0       -5.066548    0.577587   -3.210594
   31          6             0       -4.457160   -0.685730   -3.223701
   32          6             0       -5.279225   -1.888890   -3.185533
   33          6             0       -6.675534   -1.776006   -3.148037
   34          6             0       -7.306709   -0.474131   -3.156590
   35          6             0       -6.848010    1.820056   -2.347973
   36          6             0       -5.620217    2.436776   -1.873150
   37          6             0       -4.496501    1.654167   -2.417037
   38          6             0       -3.355588    1.435778   -1.667714
   39          6             0       -2.760576    0.130540   -1.646386
   40          6             0       -3.279305   -0.917429   -2.433908
   41          6             0       -4.603406   -2.865836   -2.359296
   42          6             0       -5.342491   -3.707157   -1.509867
   43          6             0       -6.789719   -3.588652   -1.470947
   44          6             0       -7.442579   -2.649110   -2.272409
   45          6             0       -8.550338   -1.876960   -1.735996
   46          6             0       -8.459105   -0.531709   -2.282914
   47          6             0       -8.796672    0.565110   -1.478955
   48          6             0       -7.977063    1.769827   -1.516796
   49          6             0       -5.559554    2.964723   -0.598594
   50          6             0       -6.700685    2.877041    0.265537
   51          6             0       -7.910360    2.312984   -0.188001
   52          6             0       -8.670577    1.437064    0.690603
   53          6             0       -9.232175    0.363152   -0.113447
   54          6             0       -9.315786   -0.935143    0.417463
   55          6             0       -8.965468   -2.071720   -0.416042
   56          6             0       -8.283238   -3.046574    0.419040
   57          6             0       -7.219667   -3.788671   -0.096911
   58          6             0       -3.371820   -2.259445   -1.879793
   59          6             0       -4.876885   -3.975642   -0.167566
   60          6             0       -6.507190    0.690121   -3.181816
   61          6             0       -1.922862    3.290436   -0.569505
   62          1             0       -2.071605    3.695408   -1.590565
   63          6             0       -3.696740    4.473610    0.314168
   64          1             0       -3.965119    5.028661   -0.606005
   65          1             0       -4.097601    5.028362    1.168178
   66          7             0       -2.255448    4.305662    0.430519
   67          6             0       -1.531622    5.558163    0.281946
   68          1             0       -1.842624    6.253152    1.068715
   69          1             0       -0.457040    5.386986    0.382984
   70          1             0       -1.713208    6.045648   -0.696016
   71          6             0       -0.492077    2.803785   -0.473206
   72          6             0        0.237541    2.520076   -1.632515
   73          6             0        0.131504    2.613910    0.768365
   74          6             0        1.551297    2.054540   -1.558664
   75          1             0       -0.229510    2.659627   -2.603941
   76          6             0        1.445994    2.157108    0.842500
   77          1             0       -0.427251    2.831563    1.672168
   78          6             0        2.176775    1.869751   -0.319538
   79          1             0        2.100678    1.836278   -2.470269
   80          1             0        1.914990    2.016862    1.812638
   81          1             0        3.588694    5.712880   -0.313382
   82          6             0        3.310716    4.656284   -0.279046
   83          6             0        4.538179    3.796339   -0.186439
   84          1             0        2.719570    4.438405   -1.172257
   85          1             0        2.642601    4.516458    0.575222
   86          6             0        4.654267    2.316544   -0.177842
   87          6             0        5.818282    4.263733   -0.096052
   88          6             0        3.591040    1.376157   -0.239946
   89          7             0        5.967538    1.942235   -0.094984
   90          6             0        6.689488    3.089575   -0.040513
   91          6             0        6.300959    5.683429   -0.059151
   92          6             0        3.794843   -0.020689   -0.238345
   93          6             0        8.078733    3.217518    0.059869
   94          1             0        6.984856    5.900296   -0.889059
   95          1             0        5.475682    6.395579   -0.124868
   96          1             0        6.844351    5.901525    0.868770
   97          6             0        2.837548   -1.119767   -0.278130
   98          7             0        5.049086   -0.587453   -0.200941
   99          1             0        8.430282    4.242445    0.104738
  100          6             0        9.111109    2.283498    0.112880
  101          6             0        3.568559   -2.290834   -0.274958
  102          6             0        1.339365   -1.041798   -0.298681
  103          6             0        4.969878   -1.951450   -0.224848
  104          7             0        9.037120    0.918778    0.064404
  105          6             0       10.507187    2.620794    0.226410
  106          6             0        3.059556   -3.701595   -0.310805
  107          1             0        0.897433   -2.038452   -0.260443
  108          1             0        0.944909   -0.480103    0.550446
  109          1             0        0.960355   -0.549418   -1.197390
  110          6             0        6.003507   -2.884324   -0.209025
  111          6             0       10.288861    0.350161    0.134445
  112          6             0       11.237794    1.448036    0.242224
  113          6             0       11.010870    4.031816    0.311251
  114          1             0        3.375183   -4.265749    0.574706
  115          1             0        1.970180   -3.736835   -0.349023
  116          1             0        3.435088   -4.240511   -1.188765
  117          1             0        5.650183   -3.908563   -0.252155
  118          6             0        7.395544   -2.755964   -0.144922
  119          6             0       10.491500   -1.047646    0.095243
  120          6             0       12.734027    1.372850    0.356429
  121          1             0       10.602959    4.551947    1.185982
  122          1             0       12.098979    4.072232    0.386443
  123          1             0       10.723414    4.614616   -0.571825
  124          6             0        8.268469   -3.930432   -0.151570
  125          7             0        8.119082   -1.611326   -0.063051
  126          6             0        9.433409   -1.987780   -0.008550
  127          1             0       13.159219    2.374551    0.449769
  128          1             0       13.053376    0.796382    1.228530
  129          1             0       13.192683    0.899103   -0.515647
  130          6             0        9.550256   -3.465230   -0.068662
  131          6             0        7.784912   -5.347657   -0.237638
  132          6             0       10.780174   -4.328012   -0.055357
  133          1             0        8.610317   -6.062814   -0.224836
  134          1             0        7.124017   -5.599737    0.600636
  135          1             0        7.214721   -5.524511   -1.157754
  136          1             0       11.363718   -4.210501    0.862112
  137          1             0       10.504170   -5.382423   -0.136673
  138          1             0       11.456491   -4.100685   -0.884168
  139          6             0       11.905760   -1.541108    0.173861
  140          6             0       12.491898   -1.841484    1.411842
  141          6             0       12.675152   -1.705321   -0.986806
  142          6             0       13.810268   -2.293480    1.488964
  143          1             0       11.904073   -1.718227    2.317024
  144          6             0       13.993657   -2.157507   -0.913387
  145          1             0       12.230055   -1.476513   -1.951015
  146          6             0       14.565471   -2.452695    0.325550
  147          1             0       14.247024   -2.521413    2.457384
  148          1             0       14.573849   -2.279867   -1.823883
  149          1             0        8.211599    0.320112   -0.008706
  150          1             0        5.876346    0.010197   -0.155767
  151          1             0       15.591473   -2.804740    0.383827
 ---------------------------------------------------------------------
 Rotational constants (GHZ):      0.0412780      0.0073130      0.0067506
 Leave Link  202 at Sat Jun 17 08:11:49 2006, MaxMem=  536870912 cpu:       0.2
 (Enter /home/konrad/system/software//g03/l301.exe)
 Standard basis: EPR-II (5D, 7F)
 There are  2137 symmetry adapted basis functions of A   symmetry.
 Integral buffers will be    131072 words long.
 Raffenetti 2 integral format.
 Two-electron integral symmetry is turned on.
  2137 basis functions,  3735 primitive gaussians,  2245 cartesian basis functions
   349 alpha electrons      348 beta electrons
       nuclear repulsion energy     19849.4884996079 Hartrees.
 IExCor= 402 DFT=T Ex=B+HF Corr=LYP ExCW=0 ScaHFX=  0.200000
 ScaDFX=  0.800000  0.720000  1.000000  0.810000
 IRadAn=      5 IRanWt=     -1 IRanGd=            0 ICorTp=0
 NAtoms=  151 NActive=  151 NUniq=  151 SFac= 7.50D-01 NAtFMM=   80 NAOKFM=T Big=T
 Leave Link  301 at Sat Jun 17 08:12:00 2006, MaxMem=  536870912 cpu:       0.1
 (Enter /home/konrad/system/software//g03/l302.exe)
 NPDir=0 NMtPBC=     1 NCelOv=     1 NCel=       1 NClECP=     1 NCelD=      1
         NCelK=      1 NCelE2=     1 NClLst=     1 CellRange=     0.0.
 One-electron integrals computed using PRISM.
 NBasis=  2137 RedAO= T  NBF=  2137
 NBsUse=  2137 1.00D-06 NBFU=  2137
 Precomputing XC quadrature grid using
 IXCGrd= 2 IRadAn=           5 IRanWt=          -1 IRanGd=           0.
 NRdTot=   13188 NPtTot=     3582360 NUsed=     3675281 NTot=     3675313
 NSgBfM=  1810  1814  1818  1820.
 Leave Link  302 at Sat Jun 17 08:14:10 2006, MaxMem=  536870912 cpu:     120.8
 (Enter /home/konrad/system/software//g03/l303.exe)
 DipDrv:  MaxL=1.
 Leave Link  303 at Sat Jun 17 08:14:23 2006, MaxMem=  536870912 cpu:       3.6
 (Enter /home/konrad/system/software//g03/l401.exe)
 SCF N**3 symmetry information disabled.
 Skipping rotation of guess because NAtoms(RWF)=  151 differs from NAtoms(Chk)=    0.
 SCF restart from the checkpoint file:
 /scratch/pfdyad.chk
 Guess basis will be translated and rotated to current coordinates.
 Initial guess orbital symmetries:
 Alpha Orbitals:
       Occupied  (A) (A) (A) (A) (A) (A) (A) (A) (A) (A) (A) (A)
                 (A) (A) (A) (A) (A) (A) (A) (A) (A) (A) (A) (A)
                 (A) (A) (A) (A) (A) (A) (A) (A) (A) (A) (A) (A)
                 (A) (A) (A) (A) (A) (A) (A) (A) (A) (A) (A) (A)
                 (A) (A) (A) (A) (A) (A) (A) (A) (A) (A) (A) (A)
                 (A) (A) (A) (A) (A) (A) (A) (A) (A) (A) (A) (A)
                 (A) (A) (A) (A) (A) (A) (A) (A) (A) (A) (A) (A)
                 (A) (A) (A) (A) (A) (A) (A) (A) (A) (A) (A) (A)
                 (A) (A) (A) (A) (A) (A) (A) (A) (A) (A) (A) (A)
                 (A) (A) (A) (A) (A) (A) (A) (A) (A) (A) (A) (A)
                 (A) (A) (A) (A) (A) (A) (A) (A) (A) (A) (A) (A)
                 (A) (A) (A) (A) (A) (A) (A) (A) (A) (A) (A) (A)
                 (A) (A) (A) (A) (A) (A) (A) (A) (A) (A) (A) (A)
                 (A) (A) (A) (A) (A) (A) (A) (A) (A) (A) (A) (A)
                 (A) (A) (A) (A) (A) (A) (A) (A) (A) (A) (A) (A)
                 (A) (A) (A) (A) (A) (A) (A) (A) (A) (A) (A) (A)
                 (A) (A) (A) (A) (A) (A) (A) (A) (A) (A) (A) (A)
                 (A) (A) (A) (A) (A) (A) (A) (A) (A) (A) (A) (A)
                 (A) (A) (A) (A) (A) (A) (A) (A) (A) (A) (A) (A)
                 (A) (A) (A) (A) (A) (A) (A) (A) (A) (A) (A) (A)
                 (A) (A) (A) (A) (A) (A) (A) (A) (A) (A) (A) (A)
                 (A) (A) (A) (A) (A) (A) (A) (A) (A) (A) (A) (A)
                 (A) (A) (A) (A) (A) (A) (A) (A) (A) (A) (A) (A)
                 (A) (A) (A) (A) (A) (A) (A) (A) (A) (A) (A) (A)
                 (A) (A) (A) (A) (A) (A) (A) (A) (A) (A) (A) (A)
                 (A) (A) (A) (A) (A) (A) (A) (A) (A) (A) (A) (A)
                 (A) (A) (A) (A) (A) (A) (A) (A) (A) (A) (A) (A)
                 (A) (A) (A) (A) (A) (A) (A) (A) (A) (A) (A) (A)
                 (A) (A) (A) (A) (A) (A) (A) (A) (A) (A) (A) (A)
                 (A)
       Virtual   (A) (A) (A) (A) (A) (A) (A) (A) (A) (A) (A) (A)
                 (A) (A) (A) (A) (A) (A) (A) (A) (A) (A) (A) (A)
                 (A) (A) (A) (A) (A) (A) (A) (A) (A) (A) (A) (A)
                 (A) (A) (A) (A) (A) (A) (A) (A) (A) (A) (A) (A)
                 (A) (A) (A) (A) (A) (A) (A) (A) (A) (A) (A) (A)
                 (A) (A) (A) (A) (A) (A) (A) (A) (A) (A) (A) (A)
                 (A) (A) (A) (A) (A) (A) (A) (A) (A) (A) (A) (A)
                 (A) (A) (A) (A) (A) (A) (A) (A) (A) (A) (A) (A)
                 (A) (A) (A) (A) (A) (A) (A) (A) (A) (A) (A) (A)
                 (A) (A) (A) (A) (A) (A) (A) (A) (A) (A) (A) (A)
                 (A) (A) (A) (A) (A) (A) (A) (A) (A) (A) (A) (A)
                 (A) (A) (A) (A) (A) (A) (A) (A) (A) (A) (A) (A)
                 (A) (A) (A) (A) (A) (A) (A) (A) (A) (A) (A) (A)
                 (A) (A) (A) (A) (A) (A) (A) (A) (A) (A) (A) (A)
                 (A) (A) (A) (A) (A) (A) (A) (A) (A) (A) (A) (A)
                 (A) (A) (A) (A) (A) (A) (A) (A) (A) (A) (A) (A)
                 (A) (A) (A) (A) (A) (A) (A) (A) (A) (A) (A) (A)
                 (A) (A) (A) (A) (A) (A) (A) (A) (A) (A) (A) (A)
                 (A) (A) (A) (A) (A) (A) (A) (A) (A) (A) (A) (A)
                 (A) (A) (A) (A) (A) (A) (A) (A) (A) (A) (A) (A)
                 (A) (A) (A) (A) (A) (A) (A) (A) (A) (A) (A) (A)
                 (A) (A) (A) (A) (A) (A) (A) (A) (A) (A) (A) (A)
                 (A) (A) (A) (A) (A) (A) (A) (A) (A) (A) (A) (A)
                 (A) (A) (A) (A) (A) (A) (A) (A) (A) (A) (A) (A)
                 (A) (A) (A) (A) (A) (A) (A) (A) (A) (A) (A) (A)
                 (A) (A) (A) (A) (A) (A) (A) (A) (A) (A) (A) (A)
                 (A) (A) (A) (A) (A) (A) (A) (A) (A) (A) (A) (A)
                 (A) (A) (A) (A) (A) (A) (A) (A) (A) (A) (A) (A)
                 (A) (A) (A) (A) (A) (A) (A) (A) (A) (A) (A) (A)
                 (A) (A) (A) (A) (A) (A) (A) (A) (A) (A) (A) (A)
                 (A) (A) (A) (A) (A) (A) (A) (A) (A) (A) (A) (A)
                 (A) (A) (A) (A) (A) (A) (A) (A) (A) (A) (A) (A)
                 (A) (A) (A) (A) (A) (A) (A) (A) (A) (A) (A) (A)
                 (A) (A) (A) (A) (A) (A) (A) (A) (A) (A) (A) (A)
                 (A) (A) (A) (A) (A) (A) (A) (A) (A) (A) (A) (A)
                 (A) (A) (A) (A) (A) (A) (A) (A) (A) (A) (A) (A)
                 (A) (A) (A) (A) (A) (A) (A) (A) (A) (A) (A) (A)
                 (A) (A) (A) (A) (A) (A) (A) (A) (A) (A) (A) (A)
                 (A) (A) (A) (A) (A) (A) (A) (A) (A) (A) (A) (A)
                 (A) (A) (A) (A) (A) (A) (A) (A) (A) (A) (A) (A)
                 (A) (A) (A) (A) (A) (A) (A) (A) (A) (A) (A) (A)
                 (A) (A) (A) (A) (A) (A) (A) (A) (A) (A) (A) (A)
                 (A) (A) (A) (A) (A) (A) (A) (A) (A) (A) (A) (A)
                 (A) (A) (A) (A) (A) (A) (A) (A) (A) (A) (A) (A)
                 (A) (A) (A) (A) (A) (A) (A) (A) (A) (A) (A) (A)
                 (A) (A) (A) (A) (A) (A) (A) (A) (A) (A) (A) (A)
                 (A) (A) (A) (A) (A) (A) (A) (A) (A) (A) (A) (A)
                 (A) (A) (A) (A) (A) (A) (A) (A) (A) (A) (A) (A)
                 (A) (A) (A) (A) (A) (A) (A) (A) (A) (A) (A) (A)
                 (A) (A) (A) (A) (A) (A) (A) (A) (A) (A) (A) (A)
                 (A) (A) (A) (A) (A) (A) (A) (A) (A) (A) (A) (A)
                 (A) (A) (A) (A) (A) (A) (A) (A) (A) (A) (A) (A)
                 (A) (A) (A) (A) (A) (A) (A) (A) (A) (A) (A) (A)
                 (A) (A) (A) (A) (A) (A) (A) (A) (A) (A) (A) (A)
                 (A) (A) (A) (A) (A) (A) (A) (A) (A) (A) (A) (A)
                 (A) (A) (A) (A) (A) (A) (A) (A) (A) (A) (A) (A)
                 (A) (A) (A) (A) (A) (A) (A) (A) (A) (A) (A) (A)
                 (A) (A) (A) (A) (A) (A) (A) (A) (A) (A) (A) (A)
                 (A) (A) (A) (A) (A) (A) (A) (A) (A) (A) (A) (A)
                 (A) (A) (A) (A) (A) (A) (A) (A) (A) (A) (A) (A)
                 (A) (A) (A) (A) (A) (A) (A) (A) (A) (A) (A) (A)
                 (A) (A) (A) (A) (A) (A) (A) (A) (A) (A) (A) (A)
                 (A) (A) (A) (A) (A) (A) (A) (A) (A) (A) (A) (A)
                 (A) (A) (A) (A) (A) (A) (A) (A) (A) (A) (A) (A)
                 (A) (A) (A) (A) (A) (A) (A) (A) (A) (A) (A) (A)
                 (A) (A) (A) (A) (A) (A) (A) (A) (A) (A) (A) (A)
                 (A) (A) (A) (A) (A) (A) (A) (A) (A) (A) (A) (A)
                 (A) (A) (A) (A) (A) (A) (A) (A) (A) (A) (A) (A)
                 (A) (A) (A) (A) (A) (A) (A) (A) (A) (A) (A) (A)
                 (A) (A) (A) (A) (A) (A) (A) (A) (A) (A) (A) (A)
                 (A) (A) (A) (A) (A) (A) (A) (A) (A) (A) (A) (A)
                 (A) (A) (A) (A) (A) (A) (A) (A) (A) (A) (A) (A)
                 (A) (A) (A) (A) (A) (A) (A) (A) (A) (A) (A) (A)
                 (A) (A) (A) (A) (A) (A) (A) (A) (A) (A) (A) (A)
                 (A) (A) (A) (A) (A) (A) (A) (A) (A) (A) (A) (A)
                 (A) (A) (A) (A) (A) (A) (A) (A) (A) (A) (A) (A)
                 (A) (A) (A) (A) (A) (A) (A) (A) (A) (A) (A) (A)
                 (A) (A) (A) (A) (A) (A) (A) (A) (A) (A) (A) (A)
                 (A) (A) (A) (A) (A) (A) (A) (A) (A) (A) (A) (A)
                 (A) (A) (A) (A) (A) (A) (A) (A) (A) (A) (A) (A)
                 (A) (A) (A) (A) (A) (A) (A) (A) (A) (A) (A) (A)
                 (A) (A) (A) (A) (A) (A) (A) (A) (A) (A) (A) (A)
                 (A) (A) (A) (A) (A) (A) (A) (A) (A) (A) (A) (A)
                 (A) (A) (A) (A) (A) (A) (A) (A) (A) (A) (A) (A)
                 (A) (A) (A) (A) (A) (A) (A) (A) (A) (A) (A) (A)
                 (A) (A) (A) (A) (A) (A) (A) (A) (A) (A) (A) (A)
                 (A) (A) (A) (A) (A) (A) (A) (A) (A) (A) (A) (A)
                 (A) (A) (A) (A) (A) (A) (A) (A) (A) (A) (A) (A)
                 (A) (A) (A) (A) (A) (A) (A) (A) (A) (A) (A) (A)
                 (A) (A) (A) (A) (A) (A) (A) (A) (A) (A) (A) (A)
                 (A) (A) (A) (A) (A) (A) (A) (A) (A) (A) (A) (A)
                 (A) (A) (A) (A) (A) (A) (A) (A) (A) (A) (A) (A)
                 (A) (A) (A) (A) (A) (A) (A) (A) (A) (A) (A) (A)
                 (A) (A) (A) (A) (A) (A) (A) (A) (A) (A) (A) (A)
                 (A) (A) (A) (A) (A) (A) (A) (A) (A) (A) (A) (A)
                 (A) (A) (A) (A) (A) (A) (A) (A) (A) (A) (A) (A)
                 (A) (A) (A) (A) (A) (A) (A) (A) (A) (A) (A) (A)
                 (A) (A) (A) (A) (A) (A) (A) (A) (A) (A) (A) (A)
                 (A) (A) (A) (A) (A) (A) (A) (A) (A) (A) (A) (A)
                 (A) (A) (A) (A) (A) (A) (A) (A) (A) (A) (A) (A)
                 (A) (A) (A) (A) (A) (A) (A) (A) (A) (A) (A) (A)
                 (A) (A) (A) (A) (A) (A) (A) (A) (A) (A) (A) (A)
                 (A) (A) (A) (A) (A) (A) (A) (A) (A) (A) (A) (A)
                 (A) (A) (A) (A) (A) (A) (A) (A) (A) (A) (A) (A)
                 (A) (A) (A) (A) (A) (A) (A) (A) (A) (A) (A) (A)
                 (A) (A) (A) (A) (A) (A) (A) (A) (A) (A) (A) (A)
                 (A) (A) (A) (A) (A) (A) (A) (A) (A) (A) (A) (A)
                 (A) (A) (A) (A) (A) (A) (A) (A) (A) (A) (A) (A)
                 (A) (A) (A) (A) (A) (A) (A) (A) (A) (A) (A) (A)
                 (A) (A) (A) (A) (A) (A) (A) (A) (A) (A) (A) (A)
                 (A) (A) (A) (A) (A) (A) (A) (A) (A) (A) (A) (A)
                 (A) (A) (A) (A) (A) (A) (A) (A) (A) (A) (A) (A)
                 (A) (A) (A) (A) (A) (A) (A) (A) (A) (A) (A) (A)
                 (A) (A) (A) (A) (A) (A) (A) (A) (A) (A) (A) (A)
                 (A) (A) (A) (A) (A) (A) (A) (A) (A) (A) (A) (A)
                 (A) (A) (A) (A) (A) (A) (A) (A) (A) (A) (A) (A)
                 (A) (A) (A) (A) (A) (A) (A) (A) (A) (A) (A) (A)
                 (A) (A) (A) (A) (A) (A) (A) (A) (A) (A) (A) (A)
                 (A) (A) (A) (A) (A) (A) (A) (A) (A) (A) (A) (A)
                 (A) (A) (A) (A) (A) (A) (A) (A) (A) (A) (A) (A)
                 (A) (A) (A) (A) (A) (A) (A) (A) (A) (A) (A) (A)
                 (A) (A) (A) (A) (A) (A) (A) (A) (A) (A) (A) (A)
                 (A) (A) (A) (A) (A) (A) (A) (A) (A) (A) (A) (A)
                 (A) (A) (A) (A) (A) (A) (A) (A) (A) (A) (A) (A)
                 (A) (A) (A) (A) (A) (A) (A) (A) (A) (A) (A) (A)
                 (A) (A) (A) (A) (A) (A) (A) (A) (A) (A) (A) (A)
                 (A) (A) (A) (A) (A) (A) (A) (A) (A) (A) (A) (A)
                 (A) (A) (A) (A) (A) (A) (A) (A) (A) (A) (A) (A)
                 (A) (A) (A) (A) (A) (A) (A) (A) (A) (A) (A) (A)
                 (A) (A) (A) (A) (A) (A) (A) (A) (A) (A) (A) (A)
                 (A) (A) (A) (A) (A) (A) (A) (A) (A) (A) (A) (A)
                 (A) (A) (A) (A) (A) (A) (A) (A) (A) (A) (A) (A)
                 (A) (A) (A) (A) (A) (A) (A) (A) (A) (A) (A) (A)
                 (A) (A) (A) (A) (A) (A) (A) (A) (A) (A) (A) (A)
                 (A) (A) (A) (A) (A) (A) (A) (A) (A) (A) (A) (A)
                 (A) (A) (A) (A) (A) (A) (A) (A) (A) (A) (A) (A)
                 (A) (A) (A) (A) (A) (A) (A) (A) (A) (A) (A) (A)
                 (A) (A) (A) (A) (A) (A) (A) (A) (A) (A) (A) (A)
                 (A) (A) (A) (A) (A) (A) (A) (A) (A) (A) (A) (A)
                 (A) (A) (A) (A) (A) (A) (A) (A) (A) (A) (A) (A)
                 (A) (A) (A) (A) (A) (A) (A) (A) (A) (A) (A) (A)
                 (A) (A) (A) (A) (A) (A) (A) (A) (A) (A) (A) (A)
                 (A) (A) (A) (A) (A) (A) (A) (A) (A) (A) (A) (A)
                 (A) (A) (A) (A) (A) (A) (A) (A) (A) (A) (A) (A)
                 (A) (A) (A) (A) (A) (A) (A) (A) (A) (A) (A) (A)
                 (A) (A) (A) (A) (A) (A) (A) (A) (A) (A) (A) (A)
                 (A) (A) (A) (A) (A) (A) (A) (A) (A) (A) (A) (A)
                 (A) (A) (A) (A) (A) (A) (A) (A) (A) (A) (A) (A)
                 (A) (A) (A) (A) (A) (A) (A) (A) (A) (A) (A) (A)
 Beta  Orbitals:
       Occupied  (A) (A) (A) (A) (A) (A) (A) (A) (A) (A) (A) (A)
                 (A) (A) (A) (A) (A) (A) (A) (A) (A) (A) (A) (A)
                 (A) (A) (A) (A) (A) (A) (A) (A) (A) (A) (A) (A)
                 (A) (A) (A) (A) (A) (A) (A) (A) (A) (A) (A) (A)
                 (A) (A) (A) (A) (A) (A) (A) (A) (A) (A) (A) (A)
                 (A) (A) (A) (A) (A) (A) (A) (A) (A) (A) (A) (A)
                 (A) (A) (A) (A) (A) (A) (A) (A) (A) (A) (A) (A)
                 (A) (A) (A) (A) (A) (A) (A) (A) (A) (A) (A) (A)
                 (A) (A) (A) (A) (A) (A) (A) (A) (A) (A) (A) (A)
                 (A) (A) (A) (A) (A) (A) (A) (A) (A) (A) (A) (A)
                 (A) (A) (A) (A) (A) (A) (A) (A) (A) (A) (A) (A)
                 (A) (A) (A) (A) (A) (A) (A) (A) (A) (A) (A) (A)
                 (A) (A) (A) (A) (A) (A) (A) (A) (A) (A) (A) (A)
                 (A) (A) (A) (A) (A) (A) (A) (A) (A) (A) (A) (A)
                 (A) (A) (A) (A) (A) (A) (A) (A) (A) (A) (A) (A)
                 (A) (A) (A) (A) (A) (A) (A) (A) (A) (A) (A) (A)
                 (A) (A) (A) (A) (A) (A) (A) (A) (A) (A) (A) (A)
                 (A) (A) (A) (A) (A) (A) (A) (A) (A) (A) (A) (A)
                 (A) (A) (A) (A) (A) (A) (A) (A) (A) (A) (A) (A)
                 (A) (A) (A) (A) (A) (A) (A) (A) (A) (A) (A) (A)
                 (A) (A) (A) (A) (A) (A) (A) (A) (A) (A) (A) (A)
                 (A) (A) (A) (A) (A) (A) (A) (A) (A) (A) (A) (A)
                 (A) (A) (A) (A) (A) (A) (A) (A) (A) (A) (A) (A)
                 (A) (A) (A) (A) (A) (A) (A) (A) (A) (A) (A) (A)
                 (A) (A) (A) (A) (A) (A) (A) (A) (A) (A) (A) (A)
                 (A) (A) (A) (A) (A) (A) (A) (A) (A) (A) (A) (A)
                 (A) (A) (A) (A) (A) (A) (A) (A) (A) (A) (A) (A)
                 (A) (A) (A) (A) (A) (A) (A) (A) (A) (A) (A) (A)
                 (A) (A) (A) (A) (A) (A) (A) (A) (A) (A) (A) (A)
       Virtual   (A) (A) (A) (A) (A) (A) (A) (A) (A) (A) (A) (A)
                 (A) (A) (A) (A) (A) (A) (A) (A) (A) (A) (A) (A)
                 (A) (A) (A) (A) (A) (A) (A) (A) (A) (A) (A) (A)
                 (A) (A) (A) (A) (A) (A) (A) (A) (A) (A) (A) (A)
                 (A) (A) (A) (A) (A) (A) (A) (A) (A) (A) (A) (A)
                 (A) (A) (A) (A) (A) (A) (A) (A) (A) (A) (A) (A)
                 (A) (A) (A) (A) (A) (A) (A) (A) (A) (A) (A) (A)
                 (A) (A) (A) (A) (A) (A) (A) (A) (A) (A) (A) (A)
                 (A) (A) (A) (A) (A) (A) (A) (A) (A) (A) (A) (A)
                 (A) (A) (A) (A) (A) (A) (A) (A) (A) (A) (A) (A)
                 (A) (A) (A) (A) (A) (A) (A) (A) (A) (A) (A) (A)
                 (A) (A) (A) (A) (A) (A) (A) (A) (A) (A) (A) (A)
                 (A) (A) (A) (A) (A) (A) (A) (A) (A) (A) (A) (A)
                 (A) (A) (A) (A) (A) (A) (A) (A) (A) (A) (A) (A)
                 (A) (A) (A) (A) (A) (A) (A) (A) (A) (A) (A) (A)
                 (A) (A) (A) (A) (A) (A) (A) (A) (A) (A) (A) (A)
                 (A) (A) (A) (A) (A) (A) (A) (A) (A) (A) (A) (A)
                 (A) (A) (A) (A) (A) (A) (A) (A) (A) (A) (A) (A)
                 (A) (A) (A) (A) (A) (A) (A) (A) (A) (A) (A) (A)
                 (A) (A) (A) (A) (A) (A) (A) (A) (A) (A) (A) (A)
                 (A) (A) (A) (A) (A) (A) (A) (A) (A) (A) (A) (A)
                 (A) (A) (A) (A) (A) (A) (A) (A) (A) (A) (A) (A)
                 (A) (A) (A) (A) (A) (A) (A) (A) (A) (A) (A) (A)
                 (A) (A) (A) (A) (A) (A) (A) (A) (A) (A) (A) (A)
                 (A) (A) (A) (A) (A) (A) (A) (A) (A) (A) (A) (A)
                 (A) (A) (A) (A) (A) (A) (A) (A) (A) (A) (A) (A)
                 (A) (A) (A) (A) (A) (A) (A) (A) (A) (A) (A) (A)
                 (A) (A) (A) (A) (A) (A) (A) (A) (A) (A) (A) (A)
                 (A) (A) (A) (A) (A) (A) (A) (A) (A) (A) (A) (A)
                 (A) (A) (A) (A) (A) (A) (A) (A) (A) (A) (A) (A)
                 (A) (A) (A) (A) (A) (A) (A) (A) (A) (A) (A) (A)
                 (A) (A) (A) (A) (A) (A) (A) (A) (A) (A) (A) (A)
                 (A) (A) (A) (A) (A) (A) (A) (A) (A) (A) (A) (A)
                 (A) (A) (A) (A) (A) (A) (A) (A) (A) (A) (A) (A)
[...]
 
              Baa    -0.0005    -0.288    -0.103    -0.096 -0.2017  0.9136  0.3531
   108 H(1)   Bbb    -0.0004    -0.238    -0.085    -0.079 -0.0181 -0.3639  0.9312
              Bcc     0.0010     0.526     0.188     0.175  0.9793  0.1815  0.0899
 
              Baa    -0.0006    -0.301    -0.107    -0.100  0.0201  0.8679  0.4964
   109 H(1)   Bbb    -0.0004    -0.200    -0.071    -0.067  0.1601 -0.4929  0.8552
              Bcc     0.0009     0.500     0.179     0.167  0.9869  0.0623 -0.1488
 
              Baa    -0.0001    -0.015    -0.005    -0.005  0.1708  0.9851  0.0196
   110 C(13)  Bbb     0.0000    -0.006    -0.002    -0.002  0.0359 -0.0261  0.9990
              Bcc     0.0002     0.020     0.007     0.007  0.9847 -0.1699 -0.0398
 
              Baa     0.0000    -0.007    -0.002    -0.002 -0.0792  0.9962  0.0364
   111 C(13)  Bbb     0.0000    -0.001     0.000     0.000  0.0306 -0.0341  0.9990
              Bcc     0.0001     0.008     0.003     0.003  0.9964  0.0802 -0.0278
 
              Baa     0.0000    -0.004    -0.001    -0.001 -0.1339  0.9799  0.1478
   112 C(13)  Bbb     0.0000    -0.004    -0.001    -0.001  0.0073 -0.1482  0.9889
              Bcc     0.0001     0.008     0.003     0.003  0.9910  0.1335  0.0127
 
              Baa     0.0000    -0.004    -0.001    -0.001 -0.2829  0.9479  0.1465
   113 C(13)  Bbb     0.0000    -0.004    -0.001    -0.001  0.0244 -0.1456  0.9890
              Bcc     0.0001     0.007     0.003     0.002  0.9588  0.2834  0.0181
 
              Baa    -0.0002    -0.089    -0.032    -0.030  0.3402  0.9118  0.2300
   114 H(1)   Bbb    -0.0002    -0.084    -0.030    -0.028 -0.1275 -0.1976  0.9720
              Bcc     0.0003     0.173     0.062     0.058  0.9317 -0.3600  0.0490
 
              Baa    -0.0003    -0.149    -0.053    -0.050  0.3692  0.8685  0.3307
   115 H(1)   Bbb    -0.0003    -0.139    -0.049    -0.046 -0.0630 -0.3317  0.9413
              Bcc     0.0005     0.288     0.103     0.096  0.9272 -0.3683 -0.0678
 
              Baa    -0.0002    -0.085    -0.030    -0.028  0.3758  0.9075  0.1875
   116 H(1)   Bbb    -0.0001    -0.080    -0.028    -0.027  0.0497 -0.2218  0.9738
              Bcc     0.0003     0.165     0.059     0.055  0.9254 -0.3566 -0.1285
 
              Baa    -0.0001    -0.048    -0.017    -0.016  0.2575  0.9092  0.3270
   117 H(1)   Bbb    -0.0001    -0.047    -0.017    -0.016 -0.0627 -0.3220  0.9447
              Bcc     0.0002     0.095     0.034     0.032  0.9642 -0.2638 -0.0259
 
              Baa    -0.0001    -0.009    -0.003    -0.003  0.0054 -0.0260  0.9996
   118 C(13)  Bbb    -0.0001    -0.008    -0.003    -0.003  0.1402  0.9898  0.0250
              Bcc     0.0001     0.018     0.006     0.006  0.9901 -0.1400 -0.0090
 
              Baa     0.0000    -0.005    -0.002    -0.002 -0.0107 -0.0373  0.9992
   119 C(13)  Bbb     0.0000    -0.004    -0.001    -0.001  0.0095  0.9993  0.0374
              Bcc     0.0001     0.010     0.003     0.003  0.9999 -0.0099  0.0104
 
              Baa     0.0000    -0.003    -0.001    -0.001 -0.1190  0.9844  0.1297
   120 C(13)  Bbb     0.0000    -0.003    -0.001    -0.001 -0.0030 -0.1310  0.9914
              Bcc     0.0000     0.006     0.002     0.002  0.9929  0.1176  0.0186
 
              Baa     0.0000    -0.015    -0.005    -0.005 -0.2625  0.8744 -0.4081
   121 H(1)   Bbb     0.0000    -0.015    -0.005    -0.005 -0.1893  0.3681  0.9103
              Bcc     0.0001     0.030     0.011     0.010  0.9462  0.3162  0.0689
 
              Baa     0.0000    -0.012    -0.004    -0.004 -0.2682  0.9544  0.1311
   122 H(1)   Bbb     0.0000    -0.012    -0.004    -0.004  0.0152 -0.1319  0.9912
              Bcc     0.0000     0.025     0.009     0.008  0.9632  0.2678  0.0209
 
              Baa     0.0000    -0.015    -0.005    -0.005 -0.2279  0.7443  0.6278
   123 H(1)   Bbb     0.0000    -0.015    -0.005    -0.005  0.2239 -0.5875  0.7777
              Bcc     0.0001     0.030     0.011     0.010  0.9476  0.3178 -0.0328
 
              Baa    -0.0001    -0.007    -0.003    -0.002  0.2214  0.9736  0.0547
   124 C(13)  Bbb     0.0000    -0.005    -0.002    -0.002  0.0055 -0.0574  0.9983
              Bcc     0.0001     0.013     0.005     0.004  0.9752 -0.2207 -0.0181
 
              Baa    -0.0001    -0.003    -0.001    -0.001  0.0522  0.9984  0.0224
   125 N(14)  Bbb     0.0000    -0.001     0.000     0.000  0.0369 -0.0243  0.9990
              Bcc     0.0001     0.004     0.001     0.001  0.9980 -0.0514 -0.0381
 
              Baa     0.0000    -0.007    -0.002    -0.002  0.0765  0.9960  0.0453
   126 C(13)  Bbb     0.0000    -0.004    -0.001    -0.001  0.0148 -0.0466  0.9988
              Bcc     0.0001     0.010     0.004     0.003  0.9970 -0.0757 -0.0183
 
              Baa     0.0000    -0.011    -0.004    -0.004 -0.1678  0.9767  0.1339
   127 H(1)   Bbb     0.0000    -0.011    -0.004    -0.004 -0.0003 -0.1359  0.9907
              Bcc     0.0000     0.022     0.008     0.007  0.9858  0.1662  0.0231
 
              Baa     0.0000    -0.012    -0.004    -0.004 -0.0937  0.9811  0.1692
   128 H(1)   Bbb     0.0000    -0.012    -0.004    -0.004 -0.0495 -0.1743  0.9834
              Bcc     0.0000     0.023     0.008     0.008  0.9944  0.0838  0.0649
 
              Baa     0.0000    -0.012    -0.004    -0.004 -0.0852  0.9915  0.0979
   129 H(1)   Bbb     0.0000    -0.011    -0.004    -0.004  0.0367 -0.0951  0.9948
              Bcc     0.0000     0.023     0.008     0.008  0.9957  0.0884 -0.0283
 
              Baa     0.0000    -0.006    -0.002    -0.002 -0.0045 -0.0415  0.9991
   130 C(13)  Bbb     0.0000    -0.005    -0.002    -0.002  0.1731  0.9840  0.0416
              Bcc     0.0001     0.011     0.004     0.004  0.9849 -0.1732 -0.0028
 
              Baa    -0.0001    -0.007    -0.002    -0.002  0.3242  0.9365  0.1336
   131 C(13)  Bbb    -0.0001    -0.007    -0.002    -0.002 -0.0252 -0.1327  0.9908
              Bcc     0.0001     0.014     0.005     0.005  0.9456 -0.3246 -0.0194
 
              Baa     0.0000    -0.004    -0.001    -0.001  0.2117  0.9684  0.1316
   132 C(13)  Bbb     0.0000    -0.004    -0.001    -0.001 -0.0232 -0.1296  0.9913
              Bcc     0.0001     0.008     0.003     0.003  0.9771 -0.2129 -0.0050
 
              Baa     0.0000    -0.022    -0.008    -0.007  0.3509  0.9300  0.1097
   133 H(1)   Bbb     0.0000    -0.022    -0.008    -0.007 -0.0224 -0.1088  0.9938
              Bcc     0.0001     0.044     0.016     0.015  0.9362 -0.3512 -0.0174
 
              Baa    -0.0001    -0.031    -0.011    -0.010  0.3460  0.9260  0.1508
   134 H(1)   Bbb    -0.0001    -0.030    -0.011    -0.010 -0.0904 -0.1270  0.9878
              Bcc     0.0001     0.061     0.022     0.020  0.9339 -0.3554  0.0398
 
              Baa    -0.0001    -0.030    -0.011    -0.010  0.3555  0.9301  0.0920
   135 H(1)   Bbb    -0.0001    -0.029    -0.010    -0.010  0.0479 -0.1164  0.9920
              Bcc     0.0001     0.059     0.021     0.020  0.9334 -0.3483 -0.0859
 
              Baa     0.0000    -0.015    -0.005    -0.005  0.1918  0.9726  0.1313
   136 H(1)   Bbb     0.0000    -0.015    -0.005    -0.005 -0.0721 -0.1195  0.9902
              Bcc     0.0001     0.030     0.011     0.010  0.9788 -0.1994  0.0472
 
              Baa     0.0000    -0.017    -0.006    -0.006  0.2759  0.9554  0.1054
   137 H(1)   Bbb     0.0000    -0.016    -0.006    -0.005 -0.0195 -0.1041  0.9944
              Bcc     0.0001     0.033     0.012     0.011  0.9610 -0.2764 -0.0101
 
              Baa     0.0000    -0.015    -0.005    -0.005  0.1971  0.9750  0.1028
   138 H(1)   Bbb     0.0000    -0.014    -0.005    -0.005  0.0306 -0.1109  0.9934
              Bcc     0.0001     0.029     0.010     0.010  0.9799 -0.1926 -0.0517
 
              Baa     0.0000    -0.004    -0.001    -0.001  0.0379  0.9575  0.2858
   139 C(13)  Bbb     0.0000    -0.004    -0.001    -0.001 -0.0206 -0.2852  0.9583
              Bcc     0.0001     0.007     0.003     0.002  0.9991 -0.0422  0.0089
 
              Baa     0.0000    -0.003    -0.001    -0.001  0.0284  0.9251  0.3787
   140 C(13)  Bbb     0.0000    -0.003    -0.001    -0.001 -0.0912 -0.3749  0.9226
              Bcc     0.0000     0.006     0.002     0.002  0.9954 -0.0607  0.0737
 
              Baa     0.0000    -0.003    -0.001    -0.001  0.0491  0.9947 -0.0905
   141 C(13)  Bbb     0.0000    -0.003    -0.001    -0.001  0.0576  0.0877  0.9945
              Bcc     0.0000     0.006     0.002     0.002  0.9971 -0.0541 -0.0530
 
              Baa     0.0000    -0.003    -0.001    -0.001 -0.0624  0.1380  0.9885
   142 C(13)  Bbb     0.0000    -0.003    -0.001    -0.001  0.0883  0.9873 -0.1322
              Bcc     0.0000     0.005     0.002     0.002  0.9941 -0.0790  0.0738
 
              Baa     0.0000    -0.014    -0.005    -0.005  0.0304  0.9855  0.1671
   143 H(1)   Bbb     0.0000    -0.014    -0.005    -0.005 -0.1350 -0.1616  0.9776
              Bcc     0.0001     0.028     0.010     0.009  0.9904 -0.0522  0.1281
 
              Baa     0.0000    -0.003    -0.001    -0.001  0.0412 -0.0808  0.9959
   144 C(13)  Bbb     0.0000    -0.003    -0.001    -0.001  0.0752  0.9941  0.0775
              Bcc     0.0000     0.005     0.002     0.002  0.9963 -0.0717 -0.0470
 
              Baa     0.0000    -0.013    -0.005    -0.004  0.0444  0.9979  0.0471
   145 H(1)   Bbb     0.0000    -0.013    -0.005    -0.004  0.1064 -0.0516  0.9930
              Bcc     0.0000     0.027     0.009     0.009  0.9933 -0.0391 -0.1085
 
              Baa     0.0000    -0.002    -0.001    -0.001  0.0835  0.9919  0.0957
   146 C(13)  Bbb     0.0000    -0.002    -0.001    -0.001 -0.0226 -0.0941  0.9953
              Bcc     0.0000     0.005     0.002     0.002  0.9963 -0.0853  0.0146
 
              Baa     0.0000    -0.010    -0.003    -0.003  0.0780  0.9933  0.0857
   147 H(1)   Bbb     0.0000    -0.009    -0.003    -0.003 -0.1263 -0.0755  0.9891
              Bcc     0.0000     0.019     0.007     0.006  0.9889 -0.0880  0.1195
 
              Baa     0.0000    -0.009    -0.003    -0.003  0.0870  0.9877  0.1298
   148 H(1)   Bbb     0.0000    -0.009    -0.003    -0.003  0.0790 -0.1367  0.9875
              Bcc     0.0000     0.018     0.007     0.006  0.9931 -0.0756 -0.0899
 
              Baa    -0.0001    -0.029    -0.010    -0.010 -0.0814  0.9381  0.3367
   149 H(1)   Bbb    -0.0001    -0.028    -0.010    -0.009  0.0294 -0.3354  0.9416
              Bcc     0.0001     0.057     0.020     0.019  0.9963  0.0865 -0.0003
 
              Baa    -0.0001    -0.050    -0.018    -0.017 -0.0791  0.9660  0.2461
   150 H(1)   Bbb    -0.0001    -0.048    -0.017    -0.016  0.0316 -0.2443  0.9692
              Bcc     0.0002     0.098     0.035     0.033  0.9964  0.0844 -0.0112
 
              Baa     0.0000    -0.008    -0.003    -0.003  0.0948  0.9904  0.1009
   151 H(1)   Bbb     0.0000    -0.008    -0.003    -0.003 -0.0262 -0.0989  0.9948
              Bcc     0.0000     0.016     0.006     0.005  0.9951 -0.0970  0.0166
 

 ---------------------------------------------------------------------------------

 No NMR shielding tensors so no spin-rotation constants.
 Leave Link  601 at Tue Jun 20 13:41:22 2006, MaxMem=  536870912 cpu:      27.5
 (Enter /home/konrad/system/software//g03/l9999.exe)

 Test job not archived.
 1\1\GINC-COMP02\SP\UB3LYP\EPR-II\C103H43N5(1-,2)\GUIK\20-Jun-2006\0\\#
 p ub3lyp/EPR-II guess=mix geom=connectivity scf=(restart,tight,novarac
 c,noincfock,xqc) integral(grid=ultrafine) pop=minimal iop(6/82=1)\\PF 
 dyad hyperfine couplings.\\-1,2\C\C,1,1.44732245\C,2,1.40064801,1,120.
 48719625\C,3,1.45711092,2,119.67011977,1,-0.39853665,0\C,4,1.40287185,
 3,119.93154788,2,-0.66188816,0\C,1,1.41218004,2,119.71371803,3,1.00614
 391,0\C,1,1.44747914,6,119.64622289,5,-137.50249155,0\C,7,1.45575496,1
 ,108.30906668,6,141.98874181,0\C,8,1.45091281,7,107.76840919,1,-0.3303
 2015,0\C,9,1.39857174,8,120.18966187,7,-142.69248993,0\C,3,1.44790465,
 2,120.35221705,1,-138.91638636,0\C,4,1.43639037,3,108.21129445,2,-142.
 895814,0\C,12,1.40724462,4,119.35285884,3,141.77517718,0\C,13,1.437384
 18,12,121.01683714,4,2.75583019,0\C,14,1.37854719,13,119.44841513,12,-
 3.32656912,0\C,15,1.47615607,14,120.66113522,13,-136.63509966,0\C,6,1.
 44495378,1,120.03151181,2,137.6296453,0\C,17,1.40327195,6,120.21287885
 ,1,0.31736274,0\C,7,1.4003859,1,120.47007828,6,-0.99516814,0\C,8,1.398
 64861,7,120.10137566,1,-143.07639853,0\C,20,1.45054521,8,120.32825462,
 7,-0.33079491,0\C,21,1.40723277,20,119.51956877,8,0.14364627,0\C,22,1.
 45143232,21,119.78885914,20,137.36096514,0\C,18,1.43633714,17,119.6840
 8659,6,-138.89336762,0\C,24,1.40726694,18,119.37938933,17,0.5499872,0\
 C,16,1.37694899,15,120.34245951,14,0.33926458,0\C,26,1.53488643,16,124
 .11743756,15,-12.5461078,0\C,14,1.53444196,13,109.91914712,12,-156.351
 9477,0\C,11,1.45153152,3,107.55888227,2,141.96052135,0\C,28,3.84399966
 ,14,104.73335153,13,36.77067092,0\C,30,1.40267391,28,98.86604481,14,-2
 7.52684766,0\C,31,1.45768379,30,119.8767364,28,129.60451082,0\C,32,1.4
 0136708,31,119.74433551,30,0.57122154,0\C,33,1.4468366,32,120.46382844
 ,31,0.44300914,0\C,30,2.33697532,28,84.65238011,14,116.79411574,0\C,35
 ,1.45371085,30,72.67967806,28,20.19492782,0\C,30,1.45386093,28,23.0758
 2104,14,174.14453502,0\C,37,1.3823398,30,120.16559767,28,24.65469569,0
 \C,38,1.43462155,37,119.61114448,30,-1.8492857,0\C,39,1.40979111,38,12
 1.02410749,37,3.40585171,0\C,32,1.4470046,31,107.98829182,30,-142.2178
 0385,0\C,41,1.40555898,32,120.23910199,31,142.38482603,0\C,42,1.452592
 96,41,119.42264383,32,0.11181382,0\C,43,1.39689194,42,120.34058539,41,
 0.1380996,0\C,44,1.45295664,43,120.12896661,42,-138.52827968,0\C,34,1.
 44728712,33,107.93825456,32,-142.45187592,0\C,46,1.40118258,34,120.467
 62749,33,142.42292057,0\C,35,1.40290382,30,144.40464212,28,-97.6235341
 2,0\C,36,1.38090613,35,120.0509726,30,-142.95577931,0\C,49,1.43408161,
 36,119.85650457,35,1.36760025,0\C,50,1.40967021,49,120.89249031,36,-2.
 97788996,0\C,23,1.39482133,22,120.26299457,21,0.32969985,0\C,47,1.4474
 3269,46,120.30234936,34,-138.66783344,0\C,53,1.40514266,47,120.2165871
 2,46,0.19165235,0\C,45,1.39733473,44,120.07782401,43,0.03116485,0\C,55
 ,1.45366493,45,119.78168479,44,0.1579122,0\C,56,1.39574256,55,120.1208
 518,45,-0.19656024,0\C,29,1.39472795,11,120.3007544,3,-142.19058966,0\
 C,11,1.40786556,3,120.11477891,2,0.25425265,0\C,34,1.41256884,33,119.6
 5784247,32,-0.99353296,0\C,28,1.58498254,14,114.24173644,13,-102.98120
 863,0\H,61,1.10846261,28,106.1606017,14,146.99468932,0\C,27,1.55268584
 ,26,112.52304847,16,-105.71941184,0\H,63,1.10762245,27,109.26521356,26
 ,-141.90804116,0\H,63,1.09442767,27,112.10049702,26,-22.48728535,0\N,6
 3,1.45570112,27,105.33657757,26,98.36824234,0\C,66,1.45422105,63,112.6
 6109911,27,169.73315479,0\H,67,1.09486819,66,109.38512228,63,60.781364
 43,0\H,67,1.09281206,66,110.18674076,63,179.60471658,0\H,67,1.10771156
 ,66,112.80795037,63,-59.4013841,0\C,61,1.51434799,28,115.65858413,14,2
 7.72550741,0\C,71,1.39886717,61,120.34943303,28,98.34886337,0\C,71,1.4
 022856,61,121.33007089,28,-81.06008124,0\C,72,1.39575476,71,120.979522
 ,61,-179.17297398,0\H,72,1.08686771,71,119.37661582,61,0.47740129,0\C,
 73,1.39357313,71,120.72642459,61,179.57274545,0\H,73,1.08463918,71,118
 .78474493,61,-0.57975964,0\C,74,1.40028638,72,120.74869399,71,-0.52078
 591,0\H,74,1.08650001,72,119.90379459,71,179.7807616,0\H,76,1.08664284
 ,73,119.7956734,71,179.89956199,0\H,78,4.09428826,74,91.80503606,72,-8
 9.69914155,0\C,78,3.00869258,74,93.32713527,72,-91.1271088,0\C,82,1.50
 158133,78,77.20344091,74,-121.46402249,0\H,82,1.09304681,78,66.4567051
 9,74,0.01350264,0\H,82,1.09348211,78,70.2331096,74,118.96038744,0\C,83
 ,1.48436637,82,129.43606834,78,0.88553118,0\C,83,1.36575688,82,125.048
 74287,78,-179.43890056,0\C,86,1.42078747,83,126.9458902,82,-0.92117789
 ,0\N,86,1.36808441,83,110.37621607,82,179.27446372,0\C,89,1.35667487,8
 6,106.37201076,83,0.44419156,0\C,87,1.49995811,83,128.84024588,82,0.41
 395618,0\C,88,1.41163646,86,123.15138056,83,179.41377171,0\C,90,1.3987
 3139,89,127.50105059,86,179.52203556,0\H,91,1.09703922,87,111.66025057
 ,83,-120.77626309,0\H,91,1.09204305,87,111.87397696,83,-0.54950865,0\H
 ,91,1.09721359,87,111.61140458,83,119.55560596,0\C,92,1.45806942,88,13
 0.62251527,86,179.08070678,0\N,92,1.37686123,88,122.60668788,86,-1.228
 6867,0\H,93,1.08446978,90,114.29192758,89,-178.99681803,0\C,93,1.39319
 856,90,132.64023032,89,1.08128443,0\C,97,1.38050206,92,106.96039836,88
 ,179.18737062,0\C,97,1.50035132,92,128.08298384,88,-1.6553496,0\C,98,1
 .36650336,92,110.95302593,88,-179.24870397,0\N,100,1.36758414,93,128.8
 7120283,90,0.78615173,0\C,100,1.44072646,93,124.33923927,90,-179.60247
 622,0\C,101,1.50020525,97,128.17005314,92,-179.82960539,0\H,102,1.0909
 0957,97,110.88918709,92,-176.17846982,0\H,102,1.09184014,97,112.137813
 65,92,-56.32733389,0\H,102,1.09259577,97,112.40024622,92,63.51401311,0
 \C,103,1.39244204,98,128.71892698,92,179.58721278,0\C,104,1.37662088,1
 00,111.17333411,93,179.47391448,0\C,105,1.38180956,100,108.33382149,93
 ,-179.63769219,0\C,105,1.50062601,100,123.35584772,93,0.46343604,0\H,1
 06,1.09636628,101,111.5253175,97,-119.85313979,0\H,106,1.09061591,101,
 111.72338801,97,0.37244143,0\H,106,1.09647998,101,111.41514493,97,120.
 43965307,0\H,110,1.08432529,103,112.98552924,98,-179.05417118,0\C,110,
 1.39941194,103,132.64633637,98,1.16289047,0\C,111,1.41296235,104,122.5
 2141421,100,-179.56172774,0\C,112,1.50246725,105,124.74178403,100,-179
 .69281074,0\H,113,1.09639515,105,111.48786836,100,60.05242856,0\H,113,
 1.09145294,105,111.92137636,100,-179.67727232,0\H,113,1.09640781,105,1
 11.48626949,100,-59.49997909,0\C,118,1.46335843,110,121.3022809,103,-1
 79.63106516,0\N,118,1.35661526,110,127.63915454,103,0.81165564,0\C,125
 ,1.36826327,118,106.41413644,110,179.2857854,0\H,120,1.09220235,112,11
 0.38232013,105,1.38891657,0\H,120,1.09309651,112,112.20818661,105,121.
 34881039,0\H,120,1.09330594,112,112.2609363,105,-118.64455938,0\C,124,
 1.36611233,118,106.62585893,110,-179.52242701,0\C,124,1.49992104,118,1
 24.49149222,110,0.58122172,0\C,130,1.50242052,124,124.96513244,118,-17
 9.49637231,0\H,131,1.09220244,124,111.98559697,118,-179.89120502,0\H,1
 31,1.09682609,124,111.56495321,118,-59.71174577,0\H,131,1.09681754,124
 ,111.59763996,118,59.81380969,0\H,132,1.09365526,130,112.48994758,124,
 -119.15910434,0\H,132,1.09296499,130,110.28073091,124,0.84616538,0\H,1
 32,1.09362186,130,112.34440223,124,120.71694779,0\C,119,1.49993935,111
 ,117.33723438,104,179.73071115,0\C,139,1.40227685,119,120.7210334,111,
 90.95740852,0\C,139,1.40216913,119,120.83146637,111,-88.65961232,0\C,1
 40,1.39583164,139,120.85960224,119,-179.62522636,0\H,140,1.08631782,13
 9,119.02186024,119,0.41291588,0\C,141,1.39582118,139,120.84526744,119,
 179.64515252,0\H,141,1.08635313,139,119.02626259,119,-0.44748852,0\C,1
 44,1.39609121,141,120.13706718,139,-0.03890401,0\H,142,1.08652968,140,
 119.791351,139,-179.98194544,0\H,144,1.08655357,141,119.78868067,139,1
 79.9170327,0\H,104,1.02236556,100,129.09165145,93,-0.8107765,0\H,98,1.
 02156038,92,119.87191926,88,1.10998212,0\H,146,1.08628409,144,120.1977
 4479,141,179.9953895,0\\Version=AM64L-G03RevD.01\State=2-A\HF=-4224.96
 28404\S2=0.755355\S2-1=0.\S2A=0.750027\RMSD=4.309e-09\Thermal=0.\Dipol
 e=8.4309952,4.6873204,1.0003806\PG=C01 [X(C103H43N5)]\\@


 THE CHYMISTS ARE A STRANGE CLASS OF MORTALS IMPELLED
 BY AN ALMOST INSANE IMPULSE TO SEEK THEIR PLEASURE
 AMONG SMOKE AND VAPOR, SOOT AND FLAME, POISONS AND
 POVERTY; YET AMONG ALL THESE EVILS I SEEM TO LIVE
 SO SWEETLY, THAT I MAY DIE IF I WOULD CHANGE PLACES
 WITH THE PERSIAN KING.
   --  JOHANN JOACHIM BECHER, 1635-1682
 ACTA LABORATORII CHYMICA MONACENSIS, 1669
 Job cpu time:  3 days  5 hours 29 minutes 36.3 seconds.
 File lengths (MBytes):  RWF=   3148 Int=      0 D2E=      0 Chk=    220 Scr=      1
 Normal termination of Gaussian 03 at Tue Jun 20 13:41:33 2006.
