 Entering Gaussian System, Link 0=g03
 Input=pyrene_cation_1.com
 Output=pyrene_cation_1.log
 Initial command:
 /home/konrad/guests/guik/Gaussian/g03/l1.exe /scratch/Gau-30145.inp -scrdir=/scratch/
 Entering Link 1 = /home/konrad/guests/guik/Gaussian/g03/l1.exe PID=     30146.
  
 Copyright (c) 1988,1990,1992,1993,1995,1998,2003,2004, Gaussian, Inc.
                  All Rights Reserved.
  
 This is the Gaussian(R) 03 program.  It is based on the
 the Gaussian(R) 98 system (copyright 1998, Gaussian, Inc.),
 the Gaussian(R) 94 system (copyright 1995, Gaussian, Inc.),
 the Gaussian 92(TM) system (copyright 1992, Gaussian, Inc.),
 the Gaussian 90(TM) system (copyright 1990, Gaussian, Inc.),
 the Gaussian 88(TM) system (copyright 1988, Gaussian, Inc.),
 the Gaussian 86(TM) system (copyright 1986, Carnegie Mellon
 University), and the Gaussian 82(TM) system (copyright 1983,
 Carnegie Mellon University). Gaussian is a federally registered
 trademark of Gaussian, Inc.
  
 This software contains proprietary and confidential information,
 including trade secrets, belonging to Gaussian, Inc.
  
 This software is provided under written license and may be
 used, copied, transmitted, or stored only in accord with that
 written license.
  
 The following legend is applicable only to US Government
 contracts under FAR:
  
                    RESTRICTED RIGHTS LEGEND
  
 Use, reproduction and disclosure by the US Government is
 subject to restrictions as set forth in subparagraphs (a)
 and (c) of the Commercial Computer Software - Restricted
 Rights clause in FAR 52.227-19.
  
 Gaussian, Inc.
 340 Quinnipiac St., Bldg. 40, Wallingford CT 06492
  
  
 ---------------------------------------------------------------
 Warning -- This program may not be used in any manner that
 competes with the business of Gaussian, Inc. or will provide
 assistance to any competitor of Gaussian, Inc.  The licensee
 of this program is prohibited from giving any competitor of
 Gaussian, Inc. access to this program.  By using this program,
 the user acknowledges that Gaussian, Inc. is engaged in the
 business of creating and licensing software in the field of
 computational chemistry and represents and warrants to the
 licensee that it is not a competitor of Gaussian, Inc. and that
 it will not use this program in any manner prohibited above.
 ---------------------------------------------------------------
  

 Cite this work as:
 Gaussian 03, Revision D.02,
 M. J. Frisch, G. W. Trucks, H. B. Schlegel, G. E. Scuseria, 
 M. A. Robb, J. R. Cheeseman, J. A. Montgomery, Jr., T. Vreven, 
 K. N. Kudin, J. C. Burant, J. M. Millam, S. S. Iyengar, J. Tomasi, 
 V. Barone, B. Mennucci, M. Cossi, G. Scalmani, N. Rega, 
 G. A. Petersson, H. Nakatsuji, M. Hada, M. Ehara, K. Toyota, 
 R. Fukuda, J. Hasegawa, M. Ishida, T. Nakajima, Y. Honda, O. Kitao, 
 H. Nakai, M. Klene, X. Li, J. E. Knox, H. P. Hratchian, J. B. Cross, 
 V. Bakken, C. Adamo, J. Jaramillo, R. Gomperts, R. E. Stratmann, 
 O. Yazyev, A. J. Austin, R. Cammi, C. Pomelli, J. W. Ochterski, 
 P. Y. Ayala, K. Morokuma, G. A. Voth, P. Salvador, J. J. Dannenberg, 
 V. G. Zakrzewski, S. Dapprich, A. D. Daniels, M. C. Strain, 
 O. Farkas, D. K. Malick, A. D. Rabuck, K. Raghavachari, 
 J. B. Foresman, J. V. Ortiz, Q. Cui, A. G. Baboul, S. Clifford, 
 J. Cioslowski, B. B. Stefanov, G. Liu, A. Liashenko, P. Piskorz, 
 I. Komaromi, R. L. Martin, D. J. Fox, T. Keith, M. A. Al-Laham, 
 C. Y. Peng, A. Nanayakkara, M. Challacombe, P. M. W. Gill, 
 B. Johnson, W. Chen, M. W. Wong, C. Gonzalez, and J. A. Pople, 
 Gaussian, Inc., Wallingford CT, 2004.
 
 ******************************************
 Gaussian 03:  AM64L-G03RevD.02  1-Mar-2006
                 9-Mar-2007 
 ******************************************
 %Mem=4GB
 %NProcShared=4
 Will use up to    4 processors via shared memory.
 ----------------------------------------------------------------------
 #p opt=(tight,gdiis) ub3lyp/EPR-II scrf=(scipcm,solvent=thf) guess=mix
  geom=connectivity scf=(tight,novaracc,noincfock) integral=(grid=ultra
 fine)
 ----------------------------------------------------------------------
 1/7=10,14=-1,18=20,19=11,26=3,38=1,57=2/1,3;
 2/9=110,17=6,18=5,40=1/2;
 3/5=21,11=2,16=1,25=1,30=1,70=1001,71=1,72=20,74=-5,75=5/1,2,3;
 4/7=2,9=2,13=1/1;
 5/5=100002,32=2,38=1,53=20/2;
 6/7=2,8=2,9=2,10=2,28=1/1;
 7//1,2,3,16;
 1/14=-1,18=20,19=11/3(3);
 2/9=110/2;
 6/7=2,8=2,9=2,10=2,19=2,28=1/1;
 99//99;
 2/9=110/2;
 3/5=21,11=2,16=1,25=1,30=1,70=1005,71=1,72=20,74=-5,75=5/1,2,3;
 4/5=5,7=2,9=2,16=3/1;
 5/5=100002,32=2,38=1,53=20/2;
 7//1,2,3,16;
 1/14=-1,18=20,19=11/3(-5);
 2/9=110/2;
 6/7=2,8=2,9=2,10=2,19=2,28=1/1;
 99/9=1/99;
 Leave Link    1 at Fri Mar  9 20:56:40 2007, MaxMem=  536870912 cpu:       0.7
 (Enter /home/konrad/guests/guik/Gaussian/g03/l101.exe)
 ------------------------------------------
 Pyrene cation radical in various solvents.
 ------------------------------------------
 Symbolic Z-matrix:
 Charge =  1 Multiplicity = 2
 C
 C                    1    B1
 C                    2    B2       1    A1
 C                    3    B3       2    A2       1    D1       0
 C                    4    B4       3    A3       2    D2       0
 C                    1    B5       2    A4       3    D3       0
 C                    3    B6       2    A5       1    D4       0
 C                    4    B7       3    A6       2    D5       0
 C                    8    B8       4    A7       3    D6       0
 C                    7    B9       3    A8       2    D7       0
 C                    9    B10      8    A9       4    D8       0
 H                    11   B11      9    A10      8    D9       0
 C                    11   B12      9    A11      8    D10      0
 C                    13   B13      11   A12      9    D11      0
 C                    14   B14      13   A13      11   D12      0
 C                    15   B15      14   A14      13   D13      0
 C                    16   B16      15   A15      14   D14      0
 H                    17   B17      16   A16      15   D15      0
 H                    16   B18      15   A17      14   D16      0
 H                    7    B19      3    A18      2    D17      0
 H                    1    B20      2    A19      3    D18      0
 H                    2    B21      1    A20      6    D19      0
 H                    6    B22      1    A21      2    D20      0
 H                    10   B23      7    A22      3    D21      0
 H                    13   B24      11   A23      9    D22      0
 H                    14   B25      13   A24      11   D23      0
       Variables:
  B1                    1.39291                  
  B2                    1.40084                  
  B3                    1.41914                  
  B4                    1.41914                  
  B5                    1.39291                  
  B6                    1.43967                  
  B7                    1.43331                  
  B8                    1.41914                  
  B9                    1.3565                   
  B10                   1.40084                  
  B11                   1.10024                  
  B12                   1.39291                  
  B13                   1.39291                  
  B14                   1.40084                  
  B15                   1.43967                  
  B16                   1.3565                   
  B17                   1.10097                  
  B18                   1.10097                  
  B19                   1.10097                  
  B20                   1.10047                  
  B21                   1.10024                  
  B22                   1.10024                  
  B23                   1.10097                  
  B24                   1.10047                  
  B25                   1.10024                  
  A1                  120.37907                  
  A2                  119.26656                  
  A3                  119.97971                  
  A4                  120.72903                  
  A5                  122.05558                  
  A6                  120.01014                  
  A7                  120.01014                  
  A8                  121.31199                  
  A9                  119.26656                  
  A10                 119.56891                  
  A11                 120.37907                  
  A12                 120.72903                  
  A13                 120.37907                  
  A14                 122.05558                  
  A15                 121.31199                  
  A16                 121.10229                  
  A17                 117.58572                  
  A18                 117.58572                  
  A19                 119.63548                  
  A20                 120.05203                  
  A21                 120.05203                  
  A22                 121.10229                  
  A23                 119.63548                  
  A24                 120.05203                  
  D1                    0.                       
  D2                    0.                       
  D3                    0.                       
  D4                  180.                       
  D5                  180.                       
  D6                    0.                       
  D7                  180.                       
  D8                  180.                       
  D9                  180.                       
  D10                   0.                       
  D11                   0.                       
  D12                   0.                       
  D13                 180.                       
  D14                -180.                       
  D15                -180.                       
  D16                   0.                       
  D17                   0.                       
  D18                -180.                       
  D19                 180.                       
  D20                 180.                       
  D21                 180.                       
  D22                 180.                       
  D23                -180.                       
 
                    Isotopes and Nuclear Properties:
 (Nuclear quadrupole moments (NQMom) in fm**2, nuclear magnetic moments (NMagM)
  in nuclear magnetons)

  Atom         1           2           3           4           5           6           7           8           9          10
 IAtWgt=          12          12          12          12          12          12          12          12          12          12
 AtmWgt=  12.0000000  12.0000000  12.0000000  12.0000000  12.0000000  12.0000000  12.0000000  12.0000000  12.0000000  12.0000000
 NucSpn=           0           0           0           0           0           0           0           0           0           0
 AtZEff=   0.0000000   0.0000000   0.0000000   0.0000000   0.0000000   0.0000000   0.0000000   0.0000000   0.0000000   0.0000000
 NQMom=    0.0000000   0.0000000   0.0000000   0.0000000   0.0000000   0.0000000   0.0000000   0.0000000   0.0000000   0.0000000
 NMagM=    0.0000000   0.0000000   0.0000000   0.0000000   0.0000000   0.0000000   0.0000000   0.0000000   0.0000000   0.0000000

  Atom        11          12          13          14          15          16          17          18          19          20
 IAtWgt=          12           1          12          12          12          12          12           1           1           1
 AtmWgt=  12.0000000   1.0078250  12.0000000  12.0000000  12.0000000  12.0000000  12.0000000   1.0078250   1.0078250   1.0078250
 NucSpn=           0           1           0           0           0           0           0           1           1           1
 AtZEff=   0.0000000   0.0000000   0.0000000   0.0000000   0.0000000   0.0000000   0.0000000   0.0000000   0.0000000   0.0000000
 NQMom=    0.0000000   0.0000000   0.0000000   0.0000000   0.0000000   0.0000000   0.0000000   0.0000000   0.0000000   0.0000000
 NMagM=    0.0000000   2.7928460   0.0000000   0.0000000   0.0000000   0.0000000   0.0000000   2.7928460   2.7928460   2.7928460

  Atom        21          22          23          24          25          26
 IAtWgt=           1           1           1           1           1           1
 AtmWgt=   1.0078250   1.0078250   1.0078250   1.0078250   1.0078250   1.0078250
 NucSpn=           1           1           1           1           1           1
 AtZEff=   0.0000000   0.0000000   0.0000000   0.0000000   0.0000000   0.0000000
 NQMom=    0.0000000   0.0000000   0.0000000   0.0000000   0.0000000   0.0000000
 NMagM=    2.7928460   2.7928460   2.7928460   2.7928460   2.7928460   2.7928460
 Leave Link  101 at Fri Mar  9 20:56:48 2007, MaxMem=  536870912 cpu:       0.2
 (Enter /home/konrad/guests/guik/Gaussian/g03/l103.exe)

 GradGradGradGradGradGradGradGradGradGradGradGradGradGradGradGradGradGrad
 Berny optimization.
 Initialization pass.
                           ----------------------------
                           !    Initial Parameters    !
                           ! (Angstroms and Degrees)  !
 --------------------------                            --------------------------
 ! Name  Definition              Value          Derivative Info.                !
 --------------------------------------------------------------------------------
 ! R1    R(1,2)                  1.3929         estimate D2E/DX2                !
 ! R2    R(1,6)                  1.3929         estimate D2E/DX2                !
 ! R3    R(1,21)                 1.1005         estimate D2E/DX2                !
 ! R4    R(2,3)                  1.4008         estimate D2E/DX2                !
 ! R5    R(2,22)                 1.1002         estimate D2E/DX2                !
 ! R6    R(3,4)                  1.4191         estimate D2E/DX2                !
 ! R7    R(3,7)                  1.4397         estimate D2E/DX2                !
 ! R8    R(4,5)                  1.4191         estimate D2E/DX2                !
 ! R9    R(4,8)                  1.4333         estimate D2E/DX2                !
 ! R10   R(5,6)                  1.4008         estimate D2E/DX2                !
 ! R11   R(5,17)                 1.4397         estimate D2E/DX2                !
 ! R12   R(6,23)                 1.1002         estimate D2E/DX2                !
 ! R13   R(7,10)                 1.3565         estimate D2E/DX2                !
 ! R14   R(7,20)                 1.101          estimate D2E/DX2                !
 ! R15   R(8,9)                  1.4191         estimate D2E/DX2                !
 ! R16   R(8,15)                 1.4191         estimate D2E/DX2                !
 ! R17   R(9,10)                 1.4397         estimate D2E/DX2                !
 ! R18   R(9,11)                 1.4008         estimate D2E/DX2                !
 ! R19   R(10,24)                1.101          estimate D2E/DX2                !
 ! R20   R(11,12)                1.1002         estimate D2E/DX2                !
 ! R21   R(11,13)                1.3929         estimate D2E/DX2                !
 ! R22   R(13,14)                1.3929         estimate D2E/DX2                !
 ! R23   R(13,25)                1.1005         estimate D2E/DX2                !
 ! R24   R(14,15)                1.4008         estimate D2E/DX2                !
 ! R25   R(14,26)                1.1002         estimate D2E/DX2                !
 ! R26   R(15,16)                1.4397         estimate D2E/DX2                !
 ! R27   R(16,17)                1.3565         estimate D2E/DX2                !
 ! R28   R(16,19)                1.101          estimate D2E/DX2                !
 ! R29   R(17,18)                1.101          estimate D2E/DX2                !
 ! A1    A(2,1,6)              120.729          estimate D2E/DX2                !
 ! A2    A(2,1,21)             119.6355         estimate D2E/DX2                !
 ! A3    A(6,1,21)             119.6355         estimate D2E/DX2                !
 ! A4    A(1,2,3)              120.3791         estimate D2E/DX2                !
 ! A5    A(1,2,22)             120.052          estimate D2E/DX2                !
 ! A6    A(3,2,22)             119.5689         estimate D2E/DX2                !
 ! A7    A(2,3,4)              119.2666         estimate D2E/DX2                !
 ! A8    A(2,3,7)              122.0556         estimate D2E/DX2                !
 ! A9    A(4,3,7)              118.6779         estimate D2E/DX2                !
 ! A10   A(3,4,5)              119.9797         estimate D2E/DX2                !
 ! A11   A(3,4,8)              120.0101         estimate D2E/DX2                !
 ! A12   A(5,4,8)              120.0101         estimate D2E/DX2                !
 ! A13   A(4,5,6)              119.2666         estimate D2E/DX2                !
 ! A14   A(4,5,17)             118.6779         estimate D2E/DX2                !
 ! A15   A(6,5,17)             122.0556         estimate D2E/DX2                !
 ! A16   A(1,6,5)              120.3791         estimate D2E/DX2                !
 ! A17   A(1,6,23)             120.052          estimate D2E/DX2                !
 ! A18   A(5,6,23)             119.5689         estimate D2E/DX2                !
 ! A19   A(3,7,10)             121.312          estimate D2E/DX2                !
 ! A20   A(3,7,20)             117.5857         estimate D2E/DX2                !
 ! A21   A(10,7,20)            121.1023         estimate D2E/DX2                !
 ! A22   A(4,8,9)              120.0101         estimate D2E/DX2                !
 ! A23   A(4,8,15)             120.0101         estimate D2E/DX2                !
 ! A24   A(9,8,15)             119.9797         estimate D2E/DX2                !
 ! A25   A(8,9,10)             118.6779         estimate D2E/DX2                !
 ! A26   A(8,9,11)             119.2666         estimate D2E/DX2                !
 ! A27   A(10,9,11)            122.0556         estimate D2E/DX2                !
 ! A28   A(7,10,9)             121.312          estimate D2E/DX2                !
 ! A29   A(7,10,24)            121.1023         estimate D2E/DX2                !
 ! A30   A(9,10,24)            117.5857         estimate D2E/DX2                !
 ! A31   A(9,11,12)            119.5689         estimate D2E/DX2                !
 ! A32   A(9,11,13)            120.3791         estimate D2E/DX2                !
 ! A33   A(12,11,13)           120.052          estimate D2E/DX2                !
 ! A34   A(11,13,14)           120.729          estimate D2E/DX2                !
 ! A35   A(11,13,25)           119.6355         estimate D2E/DX2                !
 ! A36   A(14,13,25)           119.6355         estimate D2E/DX2                !
 ! A37   A(13,14,15)           120.3791         estimate D2E/DX2                !
 ! A38   A(13,14,26)           120.052          estimate D2E/DX2                !
 ! A39   A(15,14,26)           119.5689         estimate D2E/DX2                !
 ! A40   A(8,15,14)            119.2666         estimate D2E/DX2                !
 ! A41   A(8,15,16)            118.6779         estimate D2E/DX2                !
 ! A42   A(14,15,16)           122.0556         estimate D2E/DX2                !
 ! A43   A(15,16,17)           121.312          estimate D2E/DX2                !
 ! A44   A(15,16,19)           117.5857         estimate D2E/DX2                !
 ! A45   A(17,16,19)           121.1023         estimate D2E/DX2                !
 ! A46   A(5,17,16)            121.312          estimate D2E/DX2                !
 ! A47   A(5,17,18)            117.5857         estimate D2E/DX2                !
 ! A48   A(16,17,18)           121.1023         estimate D2E/DX2                !
 ! D1    D(6,1,2,3)              0.0            estimate D2E/DX2                !
 ! D2    D(6,1,2,22)           180.0            estimate D2E/DX2                !
 ! D3    D(21,1,2,3)           180.0            estimate D2E/DX2                !
 ! D4    D(21,1,2,22)            0.0            estimate D2E/DX2                !
 ! D5    D(2,1,6,5)              0.0            estimate D2E/DX2                !
 ! D6    D(2,1,6,23)           180.0            estimate D2E/DX2                !
 ! D7    D(21,1,6,5)           180.0            estimate D2E/DX2                !
 ! D8    D(21,1,6,23)            0.0            estimate D2E/DX2                !
 ! D9    D(1,2,3,4)              0.0            estimate D2E/DX2                !
 ! D10   D(1,2,3,7)            180.0            estimate D2E/DX2                !
 ! D11   D(22,2,3,4)           180.0            estimate D2E/DX2                !
 ! D12   D(22,2,3,7)             0.0            estimate D2E/DX2                !
 ! D13   D(2,3,4,5)              0.0            estimate D2E/DX2                !
 ! D14   D(2,3,4,8)            180.0            estimate D2E/DX2                !
 ! D15   D(7,3,4,5)            180.0            estimate D2E/DX2                !
 ! D16   D(7,3,4,8)              0.0            estimate D2E/DX2                !
 ! D17   D(2,3,7,10)           180.0            estimate D2E/DX2                !
 ! D18   D(2,3,7,20)             0.0            estimate D2E/DX2                !
 ! D19   D(4,3,7,10)             0.0            estimate D2E/DX2                !
 ! D20   D(4,3,7,20)           180.0            estimate D2E/DX2                !
 ! D21   D(3,4,5,6)              0.0            estimate D2E/DX2                !
 ! D22   D(3,4,5,17)           180.0            estimate D2E/DX2                !
 ! D23   D(8,4,5,6)            180.0            estimate D2E/DX2                !
 ! D24   D(8,4,5,17)             0.0            estimate D2E/DX2                !
 ! D25   D(3,4,8,9)              0.0            estimate D2E/DX2                !
 ! D26   D(3,4,8,15)           180.0            estimate D2E/DX2                !
 ! D27   D(5,4,8,9)            180.0            estimate D2E/DX2                !
 ! D28   D(5,4,8,15)             0.0            estimate D2E/DX2                !
 ! D29   D(4,5,6,1)              0.0            estimate D2E/DX2                !
 ! D30   D(4,5,6,23)           180.0            estimate D2E/DX2                !
 ! D31   D(17,5,6,1)           180.0            estimate D2E/DX2                !
 ! D32   D(17,5,6,23)            0.0            estimate D2E/DX2                !
 ! D33   D(4,5,17,16)            0.0            estimate D2E/DX2                !
 ! D34   D(4,5,17,18)          180.0            estimate D2E/DX2                !
 ! D35   D(6,5,17,16)          180.0            estimate D2E/DX2                !
 ! D36   D(6,5,17,18)            0.0            estimate D2E/DX2                !
 ! D37   D(3,7,10,9)             0.0            estimate D2E/DX2                !
 ! D38   D(3,7,10,24)          180.0            estimate D2E/DX2                !
 ! D39   D(20,7,10,9)          180.0            estimate D2E/DX2                !
 ! D40   D(20,7,10,24)           0.0            estimate D2E/DX2                !
 ! D41   D(4,8,9,10)             0.0            estimate D2E/DX2                !
 ! D42   D(4,8,9,11)           180.0            estimate D2E/DX2                !
 ! D43   D(15,8,9,10)          180.0            estimate D2E/DX2                !
 ! D44   D(15,8,9,11)            0.0            estimate D2E/DX2                !
 ! D45   D(4,8,15,14)          180.0            estimate D2E/DX2                !
 ! D46   D(4,8,15,16)            0.0            estimate D2E/DX2                !
 ! D47   D(9,8,15,14)            0.0            estimate D2E/DX2                !
 ! D48   D(9,8,15,16)          180.0            estimate D2E/DX2                !
 ! D49   D(8,9,10,7)             0.0            estimate D2E/DX2                !
 ! D50   D(8,9,10,24)          180.0            estimate D2E/DX2                !
 ! D51   D(11,9,10,7)          180.0            estimate D2E/DX2                !
 ! D52   D(11,9,10,24)           0.0            estimate D2E/DX2                !
 ! D53   D(8,9,11,12)          180.0            estimate D2E/DX2                !
 ! D54   D(8,9,11,13)            0.0            estimate D2E/DX2                !
 ! D55   D(10,9,11,12)           0.0            estimate D2E/DX2                !
 ! D56   D(10,9,11,13)         180.0            estimate D2E/DX2                !
 ! D57   D(9,11,13,14)           0.0            estimate D2E/DX2                !
 ! D58   D(9,11,13,25)         180.0            estimate D2E/DX2                !
 ! D59   D(12,11,13,14)        180.0            estimate D2E/DX2                !
 ! D60   D(12,11,13,25)          0.0            estimate D2E/DX2                !
 ! D61   D(11,13,14,15)          0.0            estimate D2E/DX2                !
 ! D62   D(11,13,14,26)        180.0            estimate D2E/DX2                !
 ! D63   D(25,13,14,15)        180.0            estimate D2E/DX2                !
 ! D64   D(25,13,14,26)          0.0            estimate D2E/DX2                !
 ! D65   D(13,14,15,8)           0.0            estimate D2E/DX2                !
 ! D66   D(13,14,15,16)        180.0            estimate D2E/DX2                !
 ! D67   D(26,14,15,8)         180.0            estimate D2E/DX2                !
 ! D68   D(26,14,15,16)          0.0            estimate D2E/DX2                !
 ! D69   D(8,15,16,17)           0.0            estimate D2E/DX2                !
 ! D70   D(8,15,16,19)         180.0            estimate D2E/DX2                !
 ! D71   D(14,15,16,17)        180.0            estimate D2E/DX2                !
 ! D72   D(14,15,16,19)          0.0            estimate D2E/DX2                !
 ! D73   D(15,16,17,5)           0.0            estimate D2E/DX2                !
 ! D74   D(15,16,17,18)        180.0            estimate D2E/DX2                !
 ! D75   D(19,16,17,5)         180.0            estimate D2E/DX2                !
 ! D76   D(19,16,17,18)          0.0            estimate D2E/DX2                !
 --------------------------------------------------------------------------------
 Trust Radius=3.00D-01 FncErr=1.00D-07 GrdErr=1.00D-06
 Number of steps in this run= 156 maximum allowed number of steps= 156.
 GradGradGradGradGradGradGradGradGradGradGradGradGradGradGradGradGradGrad

 Leave Link  103 at Fri Mar  9 20:56:57 2007, MaxMem=  536870912 cpu:       0.1
 (Enter /home/konrad/guests/guik/Gaussian/g03/l202.exe)
                          Input orientation:                          
 ---------------------------------------------------------------------
 Center     Atomic     Atomic              Coordinates (Angstroms)
 Number     Number      Type              X           Y           Z
 ---------------------------------------------------------------------
    1          6             0        0.000000    0.000000    0.000000
    2          6             0        0.000000    0.000000    1.392912
    3          6             0        1.208504    0.000000    2.101343
    4          6             0        2.433100    0.000000    1.384187
    5          6             0        2.423820    0.000000   -0.034920
    6          6             0        1.197338    0.000000   -0.711748
    7          6             0        1.250623    0.000000    3.540397
    8          6             0        3.678920    0.000000    2.092932
    9          6             0        3.688199    0.000000    3.512039
   10          6             0        2.429676    0.000000    4.211159
   11          6             0        4.914682    0.000000    4.188867
   12          1             0        4.927682    0.000000    5.289031
   13          6             0        6.112020    0.000000    3.477119
   14          6             0        6.112020    0.000000    2.084207
   15          6             0        4.903516    0.000000    1.375776
   16          6             0        4.861397    0.000000   -0.063278
   17          6             0        3.682344    0.000000   -0.734039
   18          1             0        3.654162    0.000000   -1.834652
   19          1             0        5.821876    0.000000   -0.601442
   20          1             0        0.290144    0.000000    4.078561
   21          1             0       -0.956516    0.000000   -0.544160
   22          1             0       -0.952336    0.000000    1.943897
   23          1             0        1.184338    0.000000   -1.811912
   24          1             0        2.457858    0.000000    5.311771
   25          1             0        7.068536    0.000000    4.021280
   26          1             0        7.064356    0.000000    1.533222
 ---------------------------------------------------------------------
                    Distance matrix (angstroms):
                    1          2          3          4          5
     1  C    0.000000
     2  C    1.392912   0.000000
     3  C    2.424072   1.400841   0.000000
     4  C    2.799277   2.433116   1.419137   0.000000
     5  C    2.424072   2.813114   2.457766   1.419137   0.000000
     6  C    1.392912   2.421407   2.813114   2.433116   1.400841
     7  C    3.754793   2.485106   1.439670   2.459165   3.762882
     8  C    4.232590   3.744927   2.470430   1.433313   2.470430
     9  C    5.092861   4.253647   2.852885   2.470430   3.765577
    10  C    4.861809   3.721000   2.437741   2.826974   4.246082
    11  C    6.457608   5.654331   4.253647   3.744927   4.903546
    12  H    7.228824   6.281862   4.898330   4.633654   5.883347
    13  C    7.031866   6.457608   5.092861   4.232590   5.092861
    14  C    6.457608   6.150990   4.903546   3.744927   4.253647
    15  C    5.092861   4.903546   3.765577   2.470430   2.852885
    16  C    4.861808   5.074807   4.246082   2.826974   2.437741
    17  C    3.754793   4.252479   3.762882   2.459165   1.439670
    18  H    4.088868   4.875455   4.633929   3.442661   2.180086
    19  H    5.852860   6.153998   5.346799   3.927662   3.444957
    20  H    4.088868   2.701276   2.180086   3.442661   4.633929
    21  H    1.100469   2.160364   3.418479   3.899746   3.418479
    22  H    2.164644   1.100241   2.166568   3.431393   3.913330
    23  H    2.164644   3.416658   3.913330   3.431393   2.166568
    24  H    5.852860   4.625854   3.444957   3.927662   5.346799
    25  H    8.132336   7.541387   6.166533   5.333059   6.166533
    26  H    7.228824   7.065750   5.883347   4.633654   4.898330
                    6          7          8          9         10
     6  C    0.000000
     7  C    4.252479   0.000000
     8  C    3.744927   2.826974   0.000000
     9  C    4.903546   2.437741   1.419137   0.000000
    10  C    5.074807   1.356498   2.459165   1.439670   0.000000
    11  C    6.150990   3.721000   2.433116   1.400841   2.485106
    12  H    7.065750   4.071668   3.431393   2.166568   2.720633
    13  C    6.457608   4.861808   2.799277   2.424072   3.754793
    14  C    5.654331   5.074807   2.433116   2.813114   4.252479
    15  C    4.253647   4.246082   1.419137   2.457766   3.762882
    16  C    3.721000   5.101388   2.459165   3.762882   4.917731
    17  C    2.485106   4.917731   2.826974   4.246082   5.101388
    18  H    2.701276   5.887966   3.927662   5.346799   6.168564
    19  H    4.625854   6.168564   3.442661   4.633929   5.887966
    20  H    4.875455   1.100973   3.927662   3.444957   2.143637
    21  H    2.160364   4.642744   5.333059   6.166533   5.837752
    22  H    3.416658   2.720633   4.633654   4.898330   4.071668
    23  H    1.100241   5.352720   4.633654   5.883347   6.150467
    24  H    6.153998   2.143637   3.442661   2.180086   1.100973
    25  H    7.541387   5.837752   3.899746   3.418479   4.642744
    26  H    6.281862   6.150467   3.431393   3.913330   5.352720
                   11         12         13         14         15
    11  C    0.000000
    12  H    1.100241   0.000000
    13  C    1.392912   2.164644   0.000000
    14  C    2.421407   3.416658   1.392912   0.000000
    15  C    2.813114   3.913330   2.424072   1.400841   0.000000
    16  C    4.252479   5.352720   3.754793   2.485106   1.439670
    17  C    5.074807   6.150467   4.861809   3.721000   2.437741
    18  H    6.153998   7.236623   5.852860   4.625854   3.444957
    19  H    4.875455   5.957957   4.088868   2.701276   2.180086
    20  H    4.625854   4.792911   5.852860   6.153998   5.346799
    21  H    7.541387   8.285524   8.132336   7.541387   6.166533
    22  H    6.281862   6.764949   7.228824   7.065750   5.883347
    23  H    7.065750   8.027205   7.228824   6.281862   4.898330
    24  H    2.701276   2.469928   4.088868   4.875455   4.633929
    25  H    2.160364   2.488061   1.100469   2.160364   3.418479
    26  H    3.416658   4.321051   2.164644   1.100241   2.166568
                   16         17         18         19         20
    16  C    0.000000
    17  C    1.356498   0.000000
    18  H    2.143637   1.100973   0.000000
    19  H    1.100973   2.143637   2.493951   0.000000
    20  H    6.168564   5.887966   6.803139   7.245860   0.000000
    21  H    5.837752   4.642744   4.787871   6.778634   4.787871
    22  H    6.150467   5.352720   5.957957   7.236623   2.469928
    23  H    4.071668   2.720633   2.469928   4.792911   5.957957
    24  H    5.887966   6.168564   7.245860   6.803139   2.493951
    25  H    4.642744   5.837752   6.778634   4.787871   6.778634
    26  H    2.720633   4.071668   4.792911   2.469928   7.236623
                   21         22         23         24         25
    21  H    0.000000
    22  H    2.488061   0.000000
    23  H    2.488061   4.321051   0.000000
    24  H    6.778634   4.792911   7.236623   0.000000
    25  H    9.232805   8.285524   8.285524   4.787871   0.000000
    26  H    8.285524   8.027205   6.764949   5.957957   2.488061
                   26
    26  H    0.000000
 Stoichiometry    C16H10(1+,2)
 Framework group  D2H[C2"(HCC.CCH),SG(C12H8)]
 Deg. of freedom    13
 Full point group                 D2H
 Largest Abelian subgroup         D2H     NOp   8
 Largest concise Abelian subgroup D2      NOp   4
                         Standard orientation:                         
 ---------------------------------------------------------------------
 Center     Atomic     Atomic              Coordinates (Angstroms)
 Number     Number      Type              X           Y           Z
 ---------------------------------------------------------------------
    1          6             0        0.000000    0.000000   -3.515933
    2          6             0        0.000000   -1.210704   -2.827166
    3          6             0        0.000000   -1.228883   -1.426443
    4          6             0        0.000000    0.000000   -0.716656
    5          6             0        0.000000    1.228883   -1.426443
    6          6             0        0.000000    1.210704   -2.827166
    7          6             0        0.000000   -2.458865   -0.678249
    8          6             0        0.000000    0.000000    0.716656
    9          6             0        0.000000   -1.228883    1.426443
   10          6             0        0.000000   -2.458865    0.678249
   11          6             0        0.000000   -1.210704    2.827166
   12          1             0        0.000000   -2.160525    3.382475
   13          6             0        0.000000    0.000000    3.515933
   14          6             0        0.000000    1.210704    2.827166
   15          6             0        0.000000    1.228883    1.426443
   16          6             0        0.000000    2.458865    0.678249
   17          6             0        0.000000    2.458865   -0.678249
   18          1             0        0.000000    3.401569   -1.246976
   19          1             0        0.000000    3.401569    1.246976
   20          1             0        0.000000   -3.401569   -1.246976
   21          1             0        0.000000    0.000000   -4.616403
   22          1             0        0.000000   -2.160525   -3.382475
   23          1             0        0.000000    2.160525   -3.382475
   24          1             0        0.000000   -3.401569    1.246976
   25          1             0        0.000000    0.000000    4.616403
   26          1             0        0.000000    2.160525    3.382475
 ---------------------------------------------------------------------
 Rotational constants (GHZ):      1.0137642      0.5567306      0.3593731
 Leave Link  202 at Fri Mar  9 20:57:06 2007, MaxMem=  536870912 cpu:       0.2
 (Enter /home/konrad/guests/guik/Gaussian/g03/l301.exe)
 Standard basis: EPR-II (5D, 7F)
 There are    76 symmetry adapted basis functions of AG  symmetry.
 There are    16 symmetry adapted basis functions of B1G symmetry.
 There are    21 symmetry adapted basis functions of B2G symmetry.
 There are    58 symmetry adapted basis functions of B3G symmetry.
 There are    16 symmetry adapted basis functions of AU  symmetry.
 There are    76 symmetry adapted basis functions of B1U symmetry.
 There are    58 symmetry adapted basis functions of B2U symmetry.
 There are    21 symmetry adapted basis functions of B3U symmetry.
 Integral buffers will be    131072 words long.
 Raffenetti 2 integral format.
 Two-electron integral symmetry is turned on.
   342 basis functions,   586 primitive gaussians,   358 cartesian basis functions
    53 alpha electrons       52 beta electrons
       nuclear repulsion energy       966.5746878285 Hartrees.
 IExCor= 402 DFT=T Ex=B+HF Corr=LYP ExCW=0 ScaHFX=  0.200000
 ScaDFX=  0.800000  0.720000  1.000000  0.810000
 IRadAn=      5 IRanWt=     -1 IRanGd=            0 ICorTp=0
 NAtoms=   26 NActive=   26 NUniq=    8 SFac= 3.00D+00 NAtFMM=   80 NAOKFM=F Big=F
 Leave Link  301 at Fri Mar  9 20:57:14 2007, MaxMem=  536870912 cpu:       0.1
 (Enter /home/konrad/guests/guik/Gaussian/g03/l302.exe)
 NPDir=0 NMtPBC=     1 NCelOv=     1 NCel=       1 NClECP=     1 NCelD=      1
         NCelK=      1 NCelE2=     1 NClLst=     1 CellRange=     0.0.
 One-electron integrals computed using PRISM.
 One-electron integral symmetry used in STVInt
 NBasis=   342 RedAO= T  NBF=    76    16    21    58    16    76    58    21
 NBsUse=   342 1.00D-06 NBFU=    76    16    21    58    16    76    58    21
 Precomputing XC quadrature grid using
 IXCGrd= 2 IRadAn=           5 IRanWt=          -1 IRanGd=           0.
 NRdTot=    2200 NPtTot=      591196 NUsed=      606701 NTot=      606733
 NSgBfM=   344   344   344   344.
 Leave Link  302 at Fri Mar  9 20:57:25 2007, MaxMem=  536870912 cpu:       1.7
 (Enter /home/konrad/guests/guik/Gaussian/g03/l303.exe)
 DipDrv:  MaxL=1.
 Leave Link  303 at Fri Mar  9 20:57:35 2007, MaxMem=  536870912 cpu:       0.1
 (Enter /home/konrad/guests/guik/Gaussian/g03/l401.exe)
 SCF N**3 symmetry information disabled.
 Harris functional with IExCor=  402 diagonalized for initial guess.
 ExpMin= 4.79D-02 ExpMax= 4.23D+03 ExpMxC= 6.35D+02 IAcc=3 IRadAn=         5 AccDes= 0.00D+00
 HarFok:  IExCor= 402 AccDes= 0.00D+00 IRadAn=         5 IDoV=1
 ScaDFX=  1.000000  1.000000  1.000000  1.000000
 Harris En= -615.687181078282    
 Initial guess orbital symmetries:
 Alpha Orbitals:
       Occupied  (AG) (B1U) (B2U) (B3G) (AG) (B1U) (AG) (B2U) (B1U)
                 (B3G) (AG) (B2U) (B3G) (B1U) (AG) (B1U) (AG) (B1U)
                 (B2U) (AG) (B3G) (AG) (B1U) (B2U) (AG) (B3G) (B1U)
                 (B2U) (B1U) (AG) (B2U) (B3G) (AG) (B3G) (B1U)
                 (B2U) (AG) (AG) (B2U) (B3U) (B1U) (B3G) (B2U)
                 (B1U) (B2G) (AG) (B1G) (B3G) (B3U) (AU) (B3U)
                 (B2G) (?A)
       Virtual   (?A) (B3U) (B2G) (B1G) (B2G) (AU) (AG) (B3U) (B1U)
                 (B2U) (AG) (B3G) (AG) (B1U) (B2U) (B1U) (AG) (B2G)
                 (B3G) (B1U) (B2U) (AG) (B2U) (B2U) (B1U) (B3G)
                 (AG) (AG) (B1U) (B3G) (B1U) (AG) (B3G) (AG) (B2U)
                 (B2U) (B3U) (B3G) (B1U) (B2U) (B1U) (B2G) (B1G)
                 (AG) (B3G) (B2U) (B1U) (AG) (AU) (B3U) (B1U) (AG)
                 (B3U) (B3G) (B2G) (B1U) (B3G) (B1G) (B1U) (B2G)
                 (B2U) (B3G) (B3U) (AG) (B1G) (B2U) (B1U) (AG)
                 (AG) (AU) (B2U) (B3G) (B1U) (AG) (B2G) (B2U) (B3G)
                 (B1U) (B1U) (AU) (B3G) (B3U) (AG) (B1U) (AG) (B1U)
                 (B3G) (B2U) (B1U) (AG) (B3G) (B2G) (B2U) (B1U)
                 (B3G) (B2U) (B3U) (AG) (B1G) (B2U) (AG) (B1U)
                 (AG) (B2G) (AU) (B1U) (AG) (B2U) (B1G) (B3U) (B3G)
                 (B2U) (B1U) (B3U) (AG) (B3G) (B2U) (B1G) (AU)
                 (AG) (B3G) (B2G) (B1U) (B1G) (B3G) (B1U) (B3U)
                 (AU) (AG) (B2U) (B3G) (AG) (B1U) (B2U) (AG) (B1U)
                 (B3G) (B2G) (B3U) (B1U) (B1G) (B3G) (AG) (AU)
                 (B2U) (B1U) (AG) (B2G) (B1U) (B3U) (B3G) (AG)
                 (B2U) (B2G) (B2U) (B3G) (AG) (B1U) (AU) (B2U)
                 (B1U) (AG) (B2U) (B1G) (AG) (B3U) (B1U) (AG) (B1G)
                 (B2G) (B3G) (B2U) (B3U) (B2G) (B3G) (B1U) (B2U)
                 (AG) (B3G) (B2U) (B1U) (AG) (B1U) (B1G) (B3G)
                 (AU) (B3U) (B2G) (AU) (B3G) (B2U) (B3U) (B1G)
                 (AU) (B1U) (B3G) (AG) (B2G) (B2U) (AG) (B1U) (B2U)
                 (B2G) (AU) (B3G) (B1U) (B1G) (AG) (B3G) (B3U)
                 (B2U) (B1U) (B2G) (AU) (AG) (B3G) (B1U) (AG) (B2U)
                 (AG) (B1U) (B1U) (B2U) (B3G) (AG) (B3G) (B1U)
                 (B2U) (AG) (B1U) (B3G) (B2U) (B3G) (B1U) (AG)
                 (B3G) (B1U) (AG) (AG) (AG) (B1U) (B2U) (B2U) (B3G)
                 (B1U) (AG) (B3G) (B2U) (AG) (B1U) (B1U) (B2U)
                 (AG) (B2U) (B1U) (B3G) (AG) (B3G) (B1U) (B1U)
                 (B3G) (AG) (B1U) (AG) (B1U) (AG) (B2U) (AG) (B2U)
                 (B3G) (B1U) (B2U) (B3G) (B1U) (AG) (B1U) (B3G)
                 (AG) (B1U) (AG) (B2U) (B1U) (AG) (B3G) (B2U) (B3G)
                 (B1U) (AG) (B1U)
 Beta  Orbitals:
       Occupied  (AG) (B1U) (B2U) (B3G) (AG) (B1U) (AG) (B2U) (B1U)
                 (B3G) (AG) (B2U) (B3G) (B1U) (AG) (B1U) (AG) (B1U)
                 (B2U) (AG) (B3G) (AG) (B1U) (B2U) (AG) (B3G) (B1U)
                 (B2U) (B1U) (AG) (B2U) (B3G) (AG) (B3G) (B1U)
                 (B2U) (AG) (AG) (B2U) (B3U) (B1U) (B3G) (B2U)
                 (B1U) (B2G) (AG) (B1G) (B3G) (B3U) (AU) (B3U)
                 (?A)
       Virtual   (?A) (AU) (B3U) (B2G) (B1G) (B2G) (AU) (AG) (B3U)
                 (B1U) (B2U) (AG) (B3G) (AG) (B1U) (B2U) (B1U)
                 (AG) (B2G) (B3G) (B1U) (B2U) (AG) (B2U) (B2U)
                 (B1U) (B3G) (AG) (AG) (B1U) (B3G) (B1U) (AG) (B3G)
                 (AG) (B2U) (B2U) (B3U) (B3G) (B1U) (B2U) (B1U)
                 (B2G) (B1G) (AG) (B3G) (B2U) (B1U) (AG) (AU) (B3U)
                 (B1U) (AG) (B3U) (B3G) (B2G) (B1U) (B3G) (B1G)
                 (B1U) (B2G) (B2U) (B3G) (B3U) (AG) (B1G) (B2U)
                 (B1U) (AG) (AG) (AU) (B2U) (B3G) (B1U) (AG) (B2G)
                 (B2U) (B3G) (B1U) (B1U) (AU) (B3G) (B3U) (AG)
                 (B1U) (AG) (B1U) (B3G) (B2U) (B1U) (AG) (B3G)
                 (B2G) (B2U) (B1U) (B3G) (B2U) (B3U) (AG) (B1G)
                 (B2U) (AG) (B1U) (AG) (B2G) (AU) (B1U) (AG) (B2U)
                 (B1G) (B3U) (B3G) (B2U) (B1U) (B3U) (AG) (B3G)
                 (B2U) (B1G) (AU) (AG) (B3G) (B2G) (B1U) (B1G)
                 (B3G) (B1U) (B3U) (AU) (AG) (B2U) (B3G) (AG) (B1U)
                 (B2U) (AG) (B1U) (B3G) (B2G) (B3U) (B1U) (B1G)
                 (B3G) (AG) (AU) (B2U) (B1U) (AG) (B2G) (B1U) (B3U)
                 (B3G) (AG) (B2U) (B2G) (B2U) (B3G) (AG) (B1U)
                 (AU) (B2U) (B1U) (AG) (B2U) (B1G) (AG) (B3U) (B1U)
                 (AG) (B1G) (B2G) (B3G) (B2U) (B3U) (B2G) (B3G)
                 (B1U) (B2U) (AG) (B3G) (B2U) (B1U) (AG) (B1U)
                 (B1G) (B3G) (AU) (B3U) (B2G) (AU) (B3G) (B2U)
                 (B3U) (B1G) (AU) (B1U) (B3G) (AG) (B2G) (B2U)
                 (AG) (B1U) (B2U) (B2G) (AU) (B3G) (B1U) (B1G)
                 (AG) (B3G) (B3U) (B2U) (B1U) (B2G) (AU) (AG) (B3G)
                 (B1U) (AG) (B2U) (AG) (B1U) (B1U) (B2U) (B3G)
                 (AG) (B3G) (B1U) (B2U) (AG) (B1U) (B3G) (B2U)
                 (B3G) (B1U) (AG) (B3G) (B1U) (AG) (AG) (AG) (B1U)
                 (B2U) (B2U) (B3G) (B1U) (AG) (B3G) (B2U) (AG)
                 (B1U) (B1U) (B2U) (AG) (B2U) (B1U) (B3G) (AG)
                 (B3G) (B1U) (B1U) (B3G) (AG) (B1U) (AG) (B1U)
                 (AG) (B2U) (AG) (B2U) (B3G) (B1U) (B2U) (B3G)
                 (B1U) (AG) (B1U) (B3G) (AG) (B1U) (AG) (B2U) (B1U)
                 (AG) (B3G) (B2U) (B3G) (B1U) (AG) (B1U)
 <S**2> of initial guess= 1.0000
 Leave Link  401 at Fri Mar  9 20:57:47 2007, MaxMem=  536870912 cpu:       3.2
 (Enter /home/konrad/guests/guik/Gaussian/g03/l502.exe)
 UHF open shell SCF:
 Requested convergence on RMS density matrix=1.00D-08 within 128 cycles.
 Requested convergence on MAX density matrix=1.00D-06.
 Requested convergence on             energy=1.00D-06.
 No special actions if energy rises.
 Using DIIS extrapolation, IDIIS=  1040.
 Integral symmetry usage will be decided dynamically.
       606700 words used for storage of precomputed grid.
 IEnd=   1079113 IEndB=   1079113 NGot= 536870912 MDV= 535936962
 LenX= 535936962

 Density matrix breaks symmetry, PCut= 1.00D-04
 Density matrix has no symmetry -- integrals replicated.
 Cycle   1  Pass 1  IDiag  1:
 Integrals replicated using symmetry in FoFDir.
 MinBra= 0 MaxBra= 2 Meth= 1.
 IRaf=       0 NMat=   1 IRICut=       1 DoRegI=T DoRafI=F ISym2E= 2 JSym2E=2.
 Dielectric constant of solvent =     7.580000
 Solute cavity defined by isodensity surface of value =    0.000400 au
 Using Becke method to do surface integrals
  - all nuclei will be used as origins.
 Using old-style function for Becke weights.
 Compute SCI-PCM surface.
 Intersections with cavity surface found from nucleus    1
 Solvent accessible surface area for nucleus    1 = 1.837740E+01 au
 rMax between nucleus    1 and its part of cavity surface = 5.517641E+00 au
 rMin between nucleus    1 and its part of cavity surface = 3.834806E+00 au
 Number of cavity surface points =    176 from nucleus    1
 Intersections with cavity surface found from nucleus    2
 Solvent accessible surface area for nucleus    2 = 1.817378E+01 au
 rMax between nucleus    2 and its part of cavity surface = 5.665785E+00 au
 rMin between nucleus    2 and its part of cavity surface = 3.899780E+00 au
 Number of cavity surface points =    157 from nucleus    2
 Intersections with cavity surface found from nucleus    3
 Solvent accessible surface area for nucleus    3 = 1.956654E+01 au
 rMax between nucleus    3 and its part of cavity surface = 5.937403E+00 au
 rMin between nucleus    3 and its part of cavity surface = 3.855798E+00 au
 Number of cavity surface points =    118 from nucleus    3
 Intersections with cavity surface found from nucleus    4
 Solvent accessible surface area for nucleus    4 = 1.958162E+01 au
 rMax between nucleus    4 and its part of cavity surface = 5.823299E+00 au
 rMin between nucleus    4 and its part of cavity surface = 3.863160E+00 au
 Number of cavity surface points =    106 from nucleus    4
 Intersections with cavity surface found from nucleus    5
 Solvent accessible surface area for nucleus    5 = 1.959133E+01 au
 rMax between nucleus    5 and its part of cavity surface = 5.858566E+00 au
 rMin between nucleus    5 and its part of cavity surface = 3.813874E+00 au
 Number of cavity surface points =    118 from nucleus    5
 Intersections with cavity surface found from nucleus    6
 Solvent accessible surface area for nucleus    6 = 1.823928E+01 au
 rMax between nucleus    6 and its part of cavity surface = 5.758078E+00 au
 rMin between nucleus    6 and its part of cavity surface = 3.905865E+00 au
 Number of cavity surface points =    157 from nucleus    6
 Intersections with cavity surface found from nucleus    7
 Solvent accessible surface area for nucleus    7 = 1.822088E+01 au
 rMax between nucleus    7 and its part of cavity surface = 5.747632E+00 au
 rMin between nucleus    7 and its part of cavity surface = 3.879732E+00 au
 Number of cavity surface points =    157 from nucleus    7
 Intersections with cavity surface found from nucleus    8
 Solvent accessible surface area for nucleus    8 = 1.959050E+01 au
 rMax between nucleus    8 and its part of cavity surface = 5.923206E+00 au
 rMin between nucleus    8 and its part of cavity surface = 3.863160E+00 au
 Number of cavity surface points =    110 from nucleus    8
 Intersections with cavity surface found from nucleus    9
 Solvent accessible surface area for nucleus    9 = 1.953628E+01 au
 rMax between nucleus    9 and its part of cavity surface = 5.697521E+00 au
 rMin between nucleus    9 and its part of cavity surface = 3.843618E+00 au
 Number of cavity surface points =    118 from nucleus    9
 Intersections with cavity surface found from nucleus   10
 Solvent accessible surface area for nucleus   10 = 1.818938E+01 au
 rMax between nucleus   10 and its part of cavity surface = 5.837481E+00 au
 rMin between nucleus   10 and its part of cavity surface = 3.840509E+00 au
 Number of cavity surface points =    159 from nucleus   10
 Intersections with cavity surface found from nucleus   11
 Solvent accessible surface area for nucleus   11 = 1.810547E+01 au
 rMax between nucleus   11 and its part of cavity surface = 5.779272E+00 au
 rMin between nucleus   11 and its part of cavity surface = 3.810766E+00 au
 Number of cavity surface points =    157 from nucleus   11
 Intersections with cavity surface found from nucleus   12
 Solvent accessible surface area for nucleus   12 = 5.429591E+01 au
 rMax between nucleus   12 and its part of cavity surface = 6.121298E+00 au
 rMin between nucleus   12 and its part of cavity surface = 2.709944E+00 au
 Number of cavity surface points =    204 from nucleus   12
 Intersections with cavity surface found from nucleus   13
 Solvent accessible surface area for nucleus   13 = 1.832386E+01 au
 rMax between nucleus   13 and its part of cavity surface = 5.469149E+00 au
 rMin between nucleus   13 and its part of cavity surface = 3.834806E+00 au
 Number of cavity surface points =    176 from nucleus   13
 Intersections with cavity surface found from nucleus   14
 Solvent accessible surface area for nucleus   14 = 1.805165E+01 au
 rMax between nucleus   14 and its part of cavity surface = 5.685937E+00 au
 rMin between nucleus   14 and its part of cavity surface = 3.761774E+00 au
 Number of cavity surface points =    157 from nucleus   14
 Intersections with cavity surface found from nucleus   15
 Solvent accessible surface area for nucleus   15 = 1.953252E+01 au
 rMax between nucleus   15 and its part of cavity surface = 5.782580E+00 au
 rMin between nucleus   15 and its part of cavity surface = 3.883246E+00 au
 Number of cavity surface points =    118 from nucleus   15
 Intersections with cavity surface found from nucleus   16
 Solvent accessible surface area for nucleus   16 = 1.818245E+01 au
 rMax between nucleus   16 and its part of cavity surface = 5.769078E+00 au
 rMin between nucleus   16 and its part of cavity surface = 3.810728E+00 au
 Number of cavity surface points =    159 from nucleus   16
 Intersections with cavity surface found from nucleus   17
 Solvent accessible surface area for nucleus   17 = 1.824460E+01 au
 rMax between nucleus   17 and its part of cavity surface = 5.754727E+00 au
 rMin between nucleus   17 and its part of cavity surface = 3.900403E+00 au
 Number of cavity surface points =    157 from nucleus   17
 Intersections with cavity surface found from nucleus   18
 Solvent accessible surface area for nucleus   18 = 5.413070E+01 au
 rMax between nucleus   18 and its part of cavity surface = 6.077563E+00 au
 rMin between nucleus   18 and its part of cavity surface = 2.727175E+00 au
 Number of cavity surface points =    203 from nucleus   18
 Intersections with cavity surface found from nucleus   19
 Solvent accessible surface area for nucleus   19 = 5.371763E+01 au
 rMax between nucleus   19 and its part of cavity surface = 6.078412E+00 au
 rMin between nucleus   19 and its part of cavity surface = 2.727077E+00 au
 Number of cavity surface points =    203 from nucleus   19
 Intersections with cavity surface found from nucleus   20
 Solvent accessible surface area for nucleus   20 = 5.400140E+01 au
 rMax between nucleus   20 and its part of cavity surface = 6.077751E+00 au
 rMin between nucleus   20 and its part of cavity surface = 2.727153E+00 au
 Number of cavity surface points =    203 from nucleus   20
 Intersections with cavity surface found from nucleus   21
 Solvent accessible surface area for nucleus   21 = 5.970460E+01 au
 rMax between nucleus   21 and its part of cavity surface = 6.132660E+00 au
 rMin between nucleus   21 and its part of cavity surface = 2.726673E+00 au
 Number of cavity surface points =    221 from nucleus   21
 Intersections with cavity surface found from nucleus   22
 Solvent accessible surface area for nucleus   22 = 5.469135E+01 au
 rMax between nucleus   22 and its part of cavity surface = 6.121298E+00 au
 rMin between nucleus   22 and its part of cavity surface = 2.710077E+00 au
 Number of cavity surface points =    204 from nucleus   22
 Intersections with cavity surface found from nucleus   23
 Solvent accessible surface area for nucleus   23 = 5.493342E+01 au
 rMax between nucleus   23 and its part of cavity surface = 6.121298E+00 au
 rMin between nucleus   23 and its part of cavity surface = 2.710131E+00 au
 Number of cavity surface points =    204 from nucleus   23
 Intersections with cavity surface found from nucleus   24
 Solvent accessible surface area for nucleus   24 = 5.384163E+01 au
 rMax between nucleus   24 and its part of cavity surface = 6.078224E+00 au
 rMin between nucleus   24 and its part of cavity surface = 2.727099E+00 au
 Number of cavity surface points =    205 from nucleus   24
 Intersections with cavity surface found from nucleus   25
 Solvent accessible surface area for nucleus   25 = 5.953901E+01 au
 rMax between nucleus   25 and its part of cavity surface = 6.131898E+00 au
 rMin between nucleus   25 and its part of cavity surface = 2.726673E+00 au
 Number of cavity surface points =    221 from nucleus   25
 Intersections with cavity surface found from nucleus   26
 Solvent accessible surface area for nucleus   26 = 5.404295E+01 au
 rMax between nucleus   26 and its part of cavity surface = 6.121298E+00 au
 rMin between nucleus   26 and its part of cavity surface = 2.709890E+00 au
 Number of cavity surface points =    204 from nucleus   26
 Total "Solvent Accessible Surface Area" of solute cavity = 8.524061E+02 au
 Volume of solute cavity = 1.815692E+03 au
 Total number of cavity surface points =   4372
 Percentage of total area from each origin:
 Org:     1:   2.2%  Org:     2:   2.1%  Org:     3:   2.3%  Org:     4:   2.3% 
 Org:     5:   2.3%  Org:     6:   2.1%  Org:     7:   2.1%  Org:     8:   2.3% 
 Org:     9:   2.3%  Org:    10:   2.1%  Org:    11:   2.1%  Org:    12:   6.4% 
 Org:    13:   2.1%  Org:    14:   2.1%  Org:    15:   2.3%  Org:    16:   2.1% 
 Org:    17:   2.1%  Org:    18:   6.4%  Org:    19:   6.3%  Org:    20:   6.3% 
 Org:    21:   7.0%  Org:    22:   6.4%  Org:    23:   6.4%  Org:    24:   6.3% 
 Org:    25:   7.0%  Org:    26:   6.3% 
 The A matrix will be stored in memory.
 Total "Solvent Accessible Surface Area" of solute cavity =      0.85240614D+03
 Volume of solute cavity =                                       0.18156919D+04
 (1/(4*pi)) * flux of nuclear E-field thru cavity surface =      0.10563487D+03
 (1/(4*pi)) * flux of solute E-field thru cavity surface =       0.11808422D+01
 (1/(1-1/epsi)) * total surface polarization charge =            0.11808423D+01
 (1/2) * solvent-solute interaction energy =                    -0.75309505D-01
 E= -615.304564406180    
 DIIS: error= 2.87D-02 at cycle   1 NSaved=   1.
 NSaved= 1 IEnMin= 1 EnMin= -615.304564406180     IErMin= 1 ErrMin= 2.87D-02
 ErrMax= 2.87D-02 EMaxC= 1.00D-01 BMatC= 8.49D-01 BMatP= 8.49D-01
 IDIUse=3 WtCom= 7.13D-01 WtEn= 2.87D-01
 Coeff-Com:  0.100D+01
 Coeff-En:   0.100D+01
 Coeff:      0.100D+01
 Gap=    -0.010 Goal=   None    Shift=    0.000
 Gap=     0.029 Goal=   None    Shift=    0.000
 GapD=   -0.010 DampG=0.250 DampE=0.500 DampFc=0.2500 IDamp=-1.
 Damping current iteration by 2.50D-01
 RMSDP=7.89D-03 MaxDP=2.62D-01              OVMax= 7.21D-01

 Density matrix breaks symmetry, PCut= 1.00D-04
 Density matrix has no symmetry -- integrals replicated.
 Cycle   2  Pass 1  IDiag  1:
 Compute SCI-PCM surface.
 E= -615.409361416123     Delta-E=       -0.104797009943 Rises=F Damp=T
 DIIS: error= 1.71D-02 at cycle   2 NSaved=   2.
 NSaved= 2 IEnMin= 2 EnMin= -615.409361416123     IErMin= 2 ErrMin= 1.71D-02
 ErrMax= 1.71D-02 EMaxC= 1.00D-01 BMatC= 2.82D-01 BMatP= 8.49D-01
 IDIUse=3 WtCom= 8.29D-01 WtEn= 1.71D-01
 Coeff-Com: -0.110D+01 0.210D+01
 Coeff-En:   0.000D+00 0.100D+01
 Coeff:     -0.910D+00 0.191D+01
 Gap=     0.139 Goal=   None    Shift=    0.000
 Gap=     0.063 Goal=   None    Shift=    0.000
 RMSDP=4.12D-03 MaxDP=1.57D-01 DE=-1.05D-01 OVMax= 2.71D-01

 Density matrix breaks symmetry, PCut= 1.00D-04
 Density matrix has no symmetry -- integrals replicated.
 Cycle   3  Pass 1  IDiag  1:
 Compute SCI-PCM surface.
 E= -615.616881161737     Delta-E=       -0.207519745614 Rises=F Damp=F
 DIIS: error= 8.80D-03 at cycle   3 NSaved=   3.
 NSaved= 3 IEnMin= 3 EnMin= -615.616881161737     IErMin= 3 ErrMin= 8.80D-03
 ErrMax= 8.80D-03 EMaxC= 1.00D-01 BMatC= 4.88D-02 BMatP= 2.82D-01
 IDIUse=3 WtCom= 9.12D-01 WtEn= 8.80D-02
 Coeff-Com: -0.487D+00 0.932D+00 0.554D+00
 Coeff-En:   0.000D+00 0.000D+00 0.100D+01
 Coeff:     -0.444D+00 0.850D+00 0.593D+00
 Gap=     0.138 Goal=   None    Shift=    0.000
 Gap=     0.060 Goal=   None    Shift=    0.000
 RMSDP=1.08D-03 MaxDP=5.23D-02 DE=-2.08D-01 OVMax= 1.40D-01

 Density matrix breaks symmetry, PCut= 1.00D-04
 Density matrix has no symmetry -- integrals replicated.
 Cycle   4  Pass 1  IDiag  1:
 Compute SCI-PCM surface.
 E= -615.627783416717     Delta-E=       -0.010902254980 Rises=F Damp=F
 DIIS: error= 5.44D-03 at cycle   4 NSaved=   4.
 NSaved= 4 IEnMin= 4 EnMin= -615.627783416717     IErMin= 4 ErrMin= 5.44D-03
 ErrMax= 5.44D-03 EMaxC= 1.00D-01 BMatC= 2.43D-02 BMatP= 4.88D-02
 IDIUse=3 WtCom= 9.46D-01 WtEn= 5.44D-02
 Coeff-Com: -0.390D-01 0.986D-01 0.406D+00 0.535D+00
 Coeff-En:   0.000D+00 0.000D+00 0.308D+00 0.692D+00
 Coeff:     -0.369D-01 0.932D-01 0.401D+00 0.543D+00
 Gap=     0.143 Goal=   None    Shift=    0.000
 Gap=     0.065 Goal=   None    Shift=    0.000
 RMSDP=5.97D-04 MaxDP=2.52D-02 DE=-1.09D-02 OVMax= 8.50D-02

 Density matrix breaks symmetry, PCut= 1.00D-04
 Density matrix has no symmetry -- integrals replicated.
 Cycle   5  Pass 1  IDiag  1:
 Compute SCI-PCM surface.
 E= -615.636772355871     Delta-E=       -0.008988939154 Rises=F Damp=F
 DIIS: error= 1.12D-03 at cycle   5 NSaved=   5.
 NSaved= 5 IEnMin= 5 EnMin= -615.636772355871     IErMin= 5 ErrMin= 1.12D-03
 ErrMax= 1.12D-03 EMaxC= 1.00D-01 BMatC= 1.39D-03 BMatP= 2.43D-02
 IDIUse=3 WtCom= 9.89D-01 WtEn= 1.12D-02
 Coeff-Com:  0.234D-01-0.299D-01 0.164D+00 0.272D+00 0.570D+00
 Coeff-En:   0.000D+00 0.000D+00 0.000D+00 0.000D+00 0.100D+01
 Coeff:      0.231D-01-0.296D-01 0.162D+00 0.269D+00 0.575D+00
 Gap=     0.144 Goal=   None    Shift=    0.000
 Gap=     0.068 Goal=   None    Shift=    0.000
 RMSDP=1.36D-04 MaxDP=8.28D-03 DE=-8.99D-03 OVMax= 4.05D-02

 Density matrix breaks symmetry, PCut= 1.00D-04
 Density matrix has no symmetry -- integrals replicated.
 Cycle   6  Pass 1  IDiag  1:
 Compute SCI-PCM surface.
 E= -615.637692537581     Delta-E=       -0.000920181711 Rises=F Damp=F
 DIIS: error= 8.88D-04 at cycle   6 NSaved=   6.
 NSaved= 6 IEnMin= 6 EnMin= -615.637692537581     IErMin= 6 ErrMin= 8.88D-04
 ErrMax= 8.88D-04 EMaxC= 1.00D-01 BMatC= 3.02D-04 BMatP= 1.39D-03
 IDIUse=3 WtCom= 9.91D-01 WtEn= 8.88D-03
 Coeff-Com:  0.174D-01-0.292D-01-0.168D-01-0.149D-01 0.195D+00 0.848D+00
 Coeff-En:   0.000D+00 0.000D+00 0.000D+00 0.000D+00 0.000D+00 0.100D+01
 Coeff:      0.173D-01-0.289D-01-0.166D-01-0.148D-01 0.194D+00 0.849D+00
 Gap=     0.145 Goal=   None    Shift=    0.000
 Gap=     0.071 Goal=   None    Shift=    0.000
 RMSDP=1.26D-04 MaxDP=1.05D-02 DE=-9.20D-04 OVMax= 5.05D-02

 Density matrix breaks symmetry, PCut= 1.00D-04
 Density matrix has no symmetry -- integrals replicated.
 Cycle   7  Pass 1  IDiag  1:
 Compute SCI-PCM surface.
 E= -615.638293891316     Delta-E=       -0.000601353735 Rises=F Damp=F
 DIIS: error= 5.19D-04 at cycle   7 NSaved=   7.
 NSaved= 7 IEnMin= 7 EnMin= -615.638293891316     IErMin= 7 ErrMin= 5.19D-04
 ErrMax= 5.19D-04 EMaxC= 1.00D-01 BMatC= 1.72D-04 BMatP= 3.02D-04
 IDIUse=3 WtCom= 9.95D-01 WtEn= 5.19D-03
 Coeff-Com: -0.898D-03 0.351D-02-0.311D-01-0.663D-01-0.233D+00 0.309D+00
 Coeff-Com:  0.102D+01
 Coeff-En:   0.000D+00 0.000D+00 0.000D+00 0.000D+00 0.000D+00 0.000D+00
 Coeff-En:   0.100D+01
 Coeff:     -0.893D-03 0.349D-02-0.309D-01-0.659D-01-0.232D+00 0.307D+00
 Coeff:      0.102D+01
 Gap=     0.145 Goal=   None    Shift=    0.000
 Gap=     0.072 Goal=   None    Shift=    0.000
 RMSDP=1.10D-04 MaxDP=9.54D-03 DE=-6.01D-04 OVMax= 4.24D-02

 Density matrix breaks symmetry, PCut= 1.00D-04
 Density matrix has no symmetry -- integrals replicated.
 Cycle   8  Pass 1  IDiag  1:
 Compute SCI-PCM surface.
 E= -615.638603340776     Delta-E=       -0.000309449460 Rises=F Damp=F
 DIIS: error= 2.13D-04 at cycle   8 NSaved=   8.
 NSaved= 8 IEnMin= 8 EnMin= -615.638603340776     IErMin= 8 ErrMin= 2.13D-04
 ErrMax= 2.13D-04 EMaxC= 1.00D-01 BMatC= 9.61D-05 BMatP= 1.72D-04
 IDIUse=3 WtCom= 9.98D-01 WtEn= 2.13D-03
 Coeff-Com: -0.644D-02 0.138D-01-0.591D-02-0.309D-01-0.253D+00-0.783D-01
 Coeff-Com:  0.711D+00 0.649D+00
 Coeff-En:   0.000D+00 0.000D+00 0.000D+00 0.000D+00 0.000D+00 0.000D+00
 Coeff-En:   0.000D+00 0.100D+01
 Coeff:     -0.643D-02 0.138D-01-0.590D-02-0.309D-01-0.252D+00-0.782D-01
 Coeff:      0.710D+00 0.650D+00
 Gap=     0.145 Goal=   None    Shift=    0.000
 Gap=     0.073 Goal=   None    Shift=    0.000
 RMSDP=5.79D-05 MaxDP=5.46D-03 DE=-3.09D-04 OVMax= 2.22D-02

 Density matrix breaks symmetry, PCut= 1.00D-04
 Density matrix has no symmetry -- integrals replicated.
 Cycle   9  Pass 1  IDiag  1:
 Compute SCI-PCM surface.
 E= -615.638701099307     Delta-E=       -0.000097758531 Rises=F Damp=F
 DIIS: error= 1.12D-04 at cycle   9 NSaved=   9.
 NSaved= 9 IEnMin= 9 EnMin= -615.638701099307     IErMin= 9 ErrMin= 1.12D-04
 ErrMax= 1.12D-04 EMaxC= 1.00D-01 BMatC= 1.66D-05 BMatP= 9.61D-05
 IDIUse=3 WtCom= 9.99D-01 WtEn= 1.12D-03
 Coeff-Com: -0.126D-02 0.319D-02 0.164D-01 0.205D-01-0.183D-02-0.136D+00
 Coeff-Com: -0.142D+00 0.249D+00 0.992D+00
 Coeff-En:   0.000D+00 0.000D+00 0.000D+00 0.000D+00 0.000D+00 0.000D+00
 Coeff-En:   0.000D+00 0.000D+00 0.100D+01
 Coeff:     -0.126D-02 0.318D-02 0.164D-01 0.205D-01-0.183D-02-0.135D+00
 Coeff:     -0.142D+00 0.249D+00 0.992D+00
 Gap=     0.145 Goal=   None    Shift=    0.000
 Gap=     0.073 Goal=   None    Shift=    0.000
 RMSDP=3.37D-05 MaxDP=2.70D-03 DE=-9.78D-05 OVMax= 1.22D-02

 Density matrix breaks symmetry, PCut= 1.00D-04
 Density matrix has no symmetry -- integrals replicated.
 Cycle  10  Pass 1  IDiag  1:
 Compute SCI-PCM surface.
 E= -615.638725508170     Delta-E=       -0.000024408863 Rises=F Damp=F
 DIIS: error= 6.86D-05 at cycle  10 NSaved=  10.
 NSaved=10 IEnMin=10 EnMin= -615.638725508170     IErMin=10 ErrMin= 6.86D-05
 ErrMax= 6.86D-05 EMaxC= 1.00D-01 BMatC= 9.20D-06 BMatP= 1.66D-05
 IDIUse=1 WtCom= 1.00D+00 WtEn= 0.00D+00
 Coeff-Com:  0.860D-03-0.156D-02 0.122D-01 0.205D-01 0.615D-01-0.541D-01
 Coeff-Com: -0.258D+00 0.129D-02 0.629D+00 0.589D+00
 Coeff:      0.860D-03-0.156D-02 0.122D-01 0.205D-01 0.615D-01-0.541D-01
 Coeff:     -0.258D+00 0.129D-02 0.629D+00 0.589D+00
 Gap=     0.145 Goal=   None    Shift=    0.000
 Gap=     0.073 Goal=   None    Shift=    0.000
 RMSDP=1.09D-05 MaxDP=9.57D-04 DE=-2.44D-05 OVMax= 3.24D-03

 Density matrix breaks symmetry, PCut= 1.00D-04
 Density matrix has no symmetry -- integrals replicated.
 Cycle  11  Pass 1  IDiag  1:
 Compute SCI-PCM surface.
 E= -615.638730886803     Delta-E=       -0.000005378633 Rises=F Damp=F
 DIIS: error= 3.56D-05 at cycle  11 NSaved=  11.
 NSaved=11 IEnMin=11 EnMin= -615.638730886803     IErMin=11 ErrMin= 3.56D-05
 ErrMax= 3.56D-05 EMaxC= 1.00D-01 BMatC= 1.25D-06 BMatP= 9.20D-06
 IDIUse=1 WtCom= 1.00D+00 WtEn= 0.00D+00
 Coeff-Com:  0.319D-04-0.412D-03 0.232D-03 0.156D-02 0.200D-01 0.183D-01
 Coeff-Com: -0.586D-01-0.675D-01-0.705D-01 0.228D+00 0.929D+00
 Coeff:      0.319D-04-0.412D-03 0.232D-03 0.156D-02 0.200D-01 0.183D-01
 Coeff:     -0.586D-01-0.675D-01-0.705D-01 0.228D+00 0.929D+00
 Gap=     0.145 Goal=   None    Shift=    0.000
 Gap=     0.073 Goal=   None    Shift=    0.000
 RMSDP=8.25D-06 MaxDP=5.83D-04 DE=-5.38D-06 OVMax= 2.95D-03

 Density matrix breaks symmetry, PCut= 1.00D-04
 Density matrix has no symmetry -- integrals replicated.
 Cycle  12  Pass 1  IDiag  1:
 Compute SCI-PCM surface.
 E= -615.638732554358     Delta-E=       -0.000001667556 Rises=F Damp=F
 DIIS: error= 1.97D-05 at cycle  12 NSaved=  12.
 NSaved=12 IEnMin=12 EnMin= -615.638732554358     IErMin=12 ErrMin= 1.97D-05
 ErrMax= 1.97D-05 EMaxC= 1.00D-01 BMatC= 4.04D-07 BMatP= 1.25D-06
 IDIUse=1 WtCom= 1.00D+00 WtEn= 0.00D+00
 Coeff-Com: -0.394D-05-0.109D-03-0.197D-02-0.295D-02-0.981D-03 0.199D-01
 Coeff-Com:  0.124D-01-0.369D-01-0.151D+00 0.199D-01 0.491D+00 0.650D+00
 Coeff:     -0.394D-05-0.109D-03-0.197D-02-0.295D-02-0.981D-03 0.199D-01
 Coeff:      0.124D-01-0.369D-01-0.151D+00 0.199D-01 0.491D+00 0.650D+00
 Gap=     0.145 Goal=   None    Shift=    0.000
 Gap=     0.073 Goal=   None    Shift=    0.000
 RMSDP=3.36D-06 MaxDP=2.53D-04 DE=-1.67D-06 OVMax= 1.20D-03

 Density matrix breaks symmetry, PCut= 1.00D-04
 Density matrix has no symmetry -- integrals replicated.
 Cycle  13  Pass 1  IDiag  1:
 Compute SCI-PCM surface.
 E= -615.638732888882     Delta-E=       -0.000000334524 Rises=F Damp=F
 DIIS: error= 1.00D-05 at cycle  13 NSaved=  13.
 NSaved=13 IEnMin=13 EnMin= -615.638732888882     IErMin=13 ErrMin= 1.00D-05
 ErrMax= 1.00D-05 EMaxC= 1.00D-01 BMatC= 9.63D-08 BMatP= 4.04D-07
 IDIUse=1 WtCom= 1.00D+00 WtEn= 0.00D+00
 Coeff-Com:  0.122D-03-0.717D-04-0.711D-03-0.170D-02-0.632D-02 0.570D-02
 Coeff-Com:  0.236D-01-0.154D-04-0.518D-01-0.607D-01-0.733D-01 0.322D+00
 Coeff-Com:  0.843D+00
 Coeff:      0.122D-03-0.717D-04-0.711D-03-0.170D-02-0.632D-02 0.570D-02
 Coeff:      0.236D-01-0.154D-04-0.518D-01-0.607D-01-0.733D-01 0.322D+00
 Coeff:      0.843D+00
 Gap=     0.145 Goal=   None    Shift=    0.000
 Gap=     0.073 Goal=   None    Shift=    0.000
 RMSDP=1.94D-06 MaxDP=1.40D-04 DE=-3.35D-07 OVMax= 6.75D-04

 Density matrix breaks symmetry, PCut= 1.00D-04
 Density matrix has no symmetry -- integrals replicated.
 Cycle  14  Pass 1  IDiag  1:
 Compute SCI-PCM surface.
 E= -615.638732991146     Delta-E=       -0.000000102264 Rises=F Damp=F
 DIIS: error= 4.59D-06 at cycle  14 NSaved=  14.
 NSaved=14 IEnMin=14 EnMin= -615.638732991146     IErMin=14 ErrMin= 4.59D-06
 ErrMax= 4.59D-06 EMaxC= 1.00D-01 BMatC= 2.45D-08 BMatP= 9.63D-08
 IDIUse=1 WtCom= 1.00D+00 WtEn= 0.00D+00
 Coeff-Com:  0.117D-03-0.963D-04-0.349D-04-0.446D-03-0.349D-02-0.335D-03
 Coeff-Com:  0.104D-01 0.542D-02 0.497D-03-0.340D-01-0.132D+00 0.412D-01
 Coeff-Com:  0.432D+00 0.681D+00
 Coeff:      0.117D-03-0.963D-04-0.349D-04-0.446D-03-0.349D-02-0.335D-03
 Coeff:      0.104D-01 0.542D-02 0.497D-03-0.340D-01-0.132D+00 0.412D-01
 Coeff:      0.432D+00 0.681D+00
 Gap=     0.145 Goal=   None    Shift=    0.000
 Gap=     0.073 Goal=   None    Shift=    0.000
 RMSDP=8.59D-07 MaxDP=6.36D-05 DE=-1.02D-07 OVMax= 3.00D-04

 Cycle  15  Pass 1  IDiag  1:
 Compute SCI-PCM surface.
 E= -615.638731887975     Delta-E=        0.000001103171 Rises=F Damp=F
 DIIS: error= 1.07D-06 at cycle  15 NSaved=  15.
 NSaved=15 IEnMin=14 EnMin= -615.638732991146     IErMin=15 ErrMin= 1.07D-06
 ErrMax= 1.07D-06 EMaxC= 1.00D-01 BMatC= 8.86D-10 BMatP= 2.45D-08
 IDIUse=1 WtCom= 1.00D+00 WtEn= 0.00D+00
 Coeff-Com:  0.210D-04-0.242D-04 0.138D-03 0.178D-03 0.235D-03-0.461D-03
 Coeff-Com: -0.117D-02 0.762D-03 0.625D-02-0.135D-02-0.235D-01-0.648D-02
 Coeff-Com:  0.480D-01 0.673D-01 0.910D+00
 Coeff:      0.210D-04-0.242D-04 0.138D-03 0.178D-03 0.235D-03-0.461D-03
 Coeff:     -0.117D-02 0.762D-03 0.625D-02-0.135D-02-0.235D-01-0.648D-02
 Coeff:      0.480D-01 0.673D-01 0.910D+00
 Gap=     0.145 Goal=   None    Shift=    0.000
 Gap=     0.073 Goal=   None    Shift=    0.000
 RMSDP=5.64D-07 MaxDP=3.26D-05 DE= 1.10D-06 OVMax= 2.09D-04

 Cycle  16  Pass 1  IDiag  1:
 Compute SCI-PCM surface.
 E= -615.638732573575     Delta-E=       -0.000000685600 Rises=F Damp=F
 DIIS: error= 1.85D-06 at cycle  16 NSaved=  16.
 NSaved=16 IEnMin=14 EnMin= -615.638732991146     IErMin=15 ErrMin= 1.07D-06
 ErrMax= 1.85D-06 EMaxC= 1.00D-01 BMatC= 1.49D-09 BMatP= 8.86D-10
 IDIUse=1 WtCom= 1.00D+00 WtEn= 0.00D+00
 Coeff-Com:  0.645D-05-0.114D-04 0.689D-04 0.112D-03 0.235D-03-0.265D-03
 Coeff-Com: -0.830D-03 0.740D-03 0.440D-02 0.483D-03-0.959D-02-0.107D-01
 Coeff-Com: -0.392D-02-0.142D-01 0.588D+00 0.445D+00
 Coeff:      0.645D-05-0.114D-04 0.689D-04 0.112D-03 0.235D-03-0.265D-03
 Coeff:     -0.830D-03 0.740D-03 0.440D-02 0.483D-03-0.959D-02-0.107D-01
 Coeff:     -0.392D-02-0.142D-01 0.588D+00 0.445D+00
 Gap=     0.145 Goal=   None    Shift=    0.000
 Gap=     0.073 Goal=   None    Shift=    0.000
 RMSDP=1.20D-07 MaxDP=9.11D-06 DE=-6.86D-07 OVMax= 3.09D-05

 Cycle  17  Pass 1  IDiag  1:
 Compute SCI-PCM surface.
 E= -615.638732624819     Delta-E=       -0.000000051245 Rises=F Damp=F
 DIIS: error= 8.76D-07 at cycle  17 NSaved=  17.
 NSaved=17 IEnMin=14 EnMin= -615.638732991146     IErMin=17 ErrMin= 8.76D-07
 ErrMax= 8.76D-07 EMaxC= 1.00D-01 BMatC= 3.55D-10 BMatP= 8.86D-10
 IDIUse=1 WtCom= 1.00D+00 WtEn= 0.00D+00
 Coeff-Com:  0.314D-05-0.709D-05 0.543D-04 0.937D-04 0.210D-03-0.193D-03
 Coeff-Com: -0.657D-03 0.657D-03 0.377D-02 0.908D-03-0.635D-02-0.125D-01
 Coeff-Com: -0.160D-01-0.174D-01 0.402D+00 0.264D+00 0.381D+00
 Coeff:      0.314D-05-0.709D-05 0.543D-04 0.937D-04 0.210D-03-0.193D-03
 Coeff:     -0.657D-03 0.657D-03 0.377D-02 0.908D-03-0.635D-02-0.125D-01
 Coeff:     -0.160D-01-0.174D-01 0.402D+00 0.264D+00 0.381D+00
 Gap=     0.145 Goal=   None    Shift=    0.000
 Gap=     0.073 Goal=   None    Shift=    0.000
 RMSDP=4.73D-08 MaxDP=3.98D-06 DE=-5.12D-08 OVMax= 5.81D-06

 Cycle  18  Pass 1  IDiag  1:
 Compute SCI-PCM surface.
 E= -615.638733294811     Delta-E=       -0.000000669992 Rises=F Damp=F
 DIIS: error= 6.90D-07 at cycle  18 NSaved=  18.
 NSaved=18 IEnMin=18 EnMin= -615.638733294811     IErMin=18 ErrMin= 6.90D-07
 ErrMax= 6.90D-07 EMaxC= 1.00D-01 BMatC= 1.98D-10 BMatP= 3.55D-10
 IDIUse=1 WtCom= 1.00D+00 WtEn= 0.00D+00
 Coeff-Com:  0.204D-05-0.279D-05 0.235D-04 0.406D-04 0.886D-04-0.158D-04
 Coeff-Com: -0.287D-03 0.347D-04 0.892D-03 0.727D-03-0.446D-03-0.471D-02
 Coeff-Com: -0.385D-02-0.567D-02 0.804D-01-0.230D+00-0.159D+01 0.275D+01
 Coeff:      0.204D-05-0.279D-05 0.235D-04 0.406D-04 0.886D-04-0.158D-04
 Coeff:     -0.287D-03 0.347D-04 0.892D-03 0.727D-03-0.446D-03-0.471D-02
 Coeff:     -0.385D-02-0.567D-02 0.804D-01-0.230D+00-0.159D+01 0.275D+01
 Gap=     0.145 Goal=   None    Shift=    0.000
 Gap=     0.073 Goal=   None    Shift=    0.000
 RMSDP=1.19D-07 MaxDP=1.13D-05 DE=-6.70D-07 OVMax= 1.77D-05

 Cycle  19  Pass 1  IDiag  1:
 Compute SCI-PCM surface.
 E= -615.638732685551     Delta-E=        0.000000609260 Rises=F Damp=F
 DIIS: error= 2.64D-07 at cycle  19 NSaved=  19.
 NSaved=19 IEnMin=18 EnMin= -615.638733294811     IErMin=19 ErrMin= 2.64D-07
 ErrMax= 2.64D-07 EMaxC= 1.00D-01 BMatC= 3.14D-11 BMatP= 1.98D-10
 IDIUse=1 WtCom= 1.00D+00 WtEn= 0.00D+00
 Coeff-Com:  0.612D-06-0.889D-06-0.491D-06 0.660D-07-0.135D-05-0.233D-04
 Coeff-Com: -0.330D-04 0.214D-04 0.638D-05-0.919D-05 0.336D-03 0.326D-03
 Coeff-Com:  0.330D-03-0.512D-03 0.226D-01-0.161D+00-0.104D+01 0.162D+01
 Coeff-Com:  0.562D+00
 Coeff:      0.612D-06-0.889D-06-0.491D-06 0.660D-07-0.135D-05-0.233D-04
 Coeff:     -0.330D-04 0.214D-04 0.638D-05-0.919D-05 0.336D-03 0.326D-03
 Coeff:      0.330D-03-0.512D-03 0.226D-01-0.161D+00-0.104D+01 0.162D+01
 Coeff:      0.562D+00
 Gap=     0.145 Goal=   None    Shift=    0.000
 Gap=     0.073 Goal=   None    Shift=    0.000
 RMSDP=2.59D-08 MaxDP=2.26D-06 DE= 6.09D-07 OVMax= 7.00D-06

 Cycle  20  Pass 1  IDiag  1:
 Restarting incremental Fock formation.
 Compute SCI-PCM surface.
 E= -615.638733429945     Delta-E=       -0.000000744394 Rises=F Damp=F
 DIIS: error= 9.57D-08 at cycle  20 NSaved=  20.
 NSaved=20 IEnMin=20 EnMin= -615.638733429945     IErMin=20 ErrMin= 9.57D-08
 ErrMax= 9.57D-08 EMaxC= 1.00D-01 BMatC= 2.64D-12 BMatP= 3.14D-11
 IDIUse=1 WtCom= 1.00D+00 WtEn= 0.00D+00
 Coeff-Com: -0.148D-06 0.118D-06 0.198D-05 0.352D-05 0.118D-04-0.200D-04
 Coeff-Com: -0.540D-04-0.131D-04 0.867D-04 0.933D-04 0.506D-04 0.258D-03
 Coeff-Com:  0.276D-04-0.216D-03 0.190D-01-0.916D-02-0.853D-01 0.171D+00
 Coeff-Com:  0.142D+00 0.763D+00
 Coeff:     -0.148D-06 0.118D-06 0.198D-05 0.352D-05 0.118D-04-0.200D-04
 Coeff:     -0.540D-04-0.131D-04 0.867D-04 0.933D-04 0.506D-04 0.258D-03
 Coeff:      0.276D-04-0.216D-03 0.190D-01-0.916D-02-0.853D-01 0.171D+00
 Coeff:      0.142D+00 0.763D+00
 Gap=     0.145 Goal=   None    Shift=    0.000
 Gap=     0.073 Goal=   None    Shift=    0.000
 RMSDP=1.35D-08 MaxDP=1.35D-06 DE=-7.44D-07 OVMax= 1.73D-06

 Cycle  21  Pass 1  IDiag  1:
 Compute SCI-PCM surface.
 E= -615.638732844483     Delta-E=        0.000000585462 Rises=F Damp=F
 DIIS: error= 2.73D-08 at cycle  21 NSaved=  20.
 NSaved=20 IEnMin=19 EnMin= -615.638733429945     IErMin=20 ErrMin= 2.73D-08
 ErrMax= 2.73D-08 EMaxC= 1.00D-01 BMatC= 3.81D-13 BMatP= 2.64D-12
 IDIUse=1 WtCom= 1.00D+00 WtEn= 0.00D+00
 Coeff-Com: -0.689D-07 0.302D-06 0.255D-06 0.216D-05 0.120D-05-0.151D-04
 Coeff-Com: -0.688D-05 0.307D-05 0.135D-04 0.511D-04-0.377D-04 0.285D-03
 Coeff-Com:  0.392D-03 0.135D-02 0.229D-01 0.104D+00-0.191D+00-0.600D-01
 Coeff-Com:  0.124D+00 0.999D+00
 Coeff:     -0.689D-07 0.302D-06 0.255D-06 0.216D-05 0.120D-05-0.151D-04
 Coeff:     -0.688D-05 0.307D-05 0.135D-04 0.511D-04-0.377D-04 0.285D-03
 Coeff:      0.392D-03 0.135D-02 0.229D-01 0.104D+00-0.191D+00-0.600D-01
 Coeff:      0.124D+00 0.999D+00
 Gap=     0.145 Goal=   None    Shift=    0.000
 Gap=     0.073 Goal=   None    Shift=    0.000
 RMSDP=3.17D-09 MaxDP=2.66D-07 DE= 5.85D-07 OVMax= 5.44D-07

 Cycle  22  Pass 1  IDiag  1:
 Compute SCI-PCM surface.
 E= -615.638733123436     Delta-E=       -0.000000278953 Rises=F Damp=F
 DIIS: error= 2.15D-08 at cycle  22 NSaved=  20.
 NSaved=20 IEnMin=18 EnMin= -615.638733429945     IErMin=20 ErrMin= 2.15D-08
 ErrMax= 2.15D-08 EMaxC= 1.00D-01 BMatC= 2.09D-13 BMatP= 3.81D-13
 IDIUse=1 WtCom= 1.00D+00 WtEn= 0.00D+00
 Coeff-Com:  0.389D-07-0.218D-07-0.120D-06 0.928D-06-0.445D-06 0.257D-05
 Coeff-Com:  0.523D-05-0.107D-04-0.366D-04-0.201D-04 0.118D-03 0.145D-04
 Coeff-Com: -0.897D-04 0.146D-01 0.587D-01-0.127D+00-0.441D-01-0.387D-01
 Coeff-Com:  0.524D+00 0.612D+00
 Coeff:      0.389D-07-0.218D-07-0.120D-06 0.928D-06-0.445D-06 0.257D-05
 Coeff:      0.523D-05-0.107D-04-0.366D-04-0.201D-04 0.118D-03 0.145D-04
 Coeff:     -0.897D-04 0.146D-01 0.587D-01-0.127D+00-0.441D-01-0.387D-01
 Coeff:      0.524D+00 0.612D+00
 Gap=     0.145 Goal=   None    Shift=    0.000
 Gap=     0.073 Goal=   None    Shift=    0.000
 RMSDP=1.53D-09 MaxDP=1.26D-07 DE=-2.79D-07 OVMax= 2.38D-07

 SCF Done:  E(UB+HF-LYP) =  -615.638733123     A.U. after   22 cycles
             Convg  =    0.1533D-08             -V/T =  2.0082
             S**2   =   0.7696
 KE= 6.106318454227D+02 PE=-3.342094546952D+03 EE= 1.149249280577D+03
 Annihilation of the first spin contaminant:
 S**2 before annihilation     0.7696,   after     0.7503
 Leave Link  502 at Fri Mar  9 22:03:40 2007, MaxMem=  536870912 cpu:    3943.6
 (Enter /home/konrad/guests/guik/Gaussian/g03/l601.exe)
 Copying SCF densities to generalized density rwf, ISCF=1 IROHF=0.

 **********************************************************************

            Population analysis using the SCF density.

 **********************************************************************

 Orbital symmetries:
 Alpha Orbitals:
       Occupied  (B1U) (AG) (B3G) (B2U) (B1U) (AG) (?A) (?A) (?B)
                 (?B) (?C) (?C) (AG) (B1U) (?D) (?D) (AG) (B1U)
                 (B2U) (AG) (B3G) (AG) (B1U) (B2U) (B3G) (AG) (B1U)
                 (B2U) (B1U) (AG) (B3G) (B2U) (AG) (B1U) (B3G)
                 (B2U) (AG) (B3U) (AG) (B2U) (B1U) (B3G) (B2G)
                 (B2U) (B1U) (B1G) (AG) (B3G) (B3U) (AU) (B3U)
                 (B2G) (B1G)
       Virtual   (AU) (B3U) (B2G) (B1G) (AG) (B1U) (B2U) (B2G)
                 (B3G) (AG) (AG) (B1U) (AU) (B2U) (B1U) (AG) (B3G)
                 (B2U) (B3U) (B1U) (B3G) (AG) (B2U) (AG) (B1U)
                 (AG) (B2G) (B1U) (B2U) (B3G) (B3G) (B1U) (AG)
                 (B1U) (B2U) (AG) (B3U) (B3G) (B1U) (B2U) (B1G)
                 (B2G) (AG) (B3G) (B2U) (B2U) (AU) (B3U) (B1U)
                 (B3U) (B1U) (AG) (AG) (B2G) (B1G) (B1U) (B3G)
                 (B2G) (B3G) (AG) (B2U) (B3U) (B1G) (B1U) (AG)
                 (B2U) (B1U) (AU) (B3G) (B3G) (AG) (B2U) (AG) (B1U)
                 (B2G) (B1U) (B3G) (AU) (B2U) (B1U) (B3U) (B1U)
                 (B3G) (AG) (AG) (B2U) (AG) (B3G) (B2G) (B2U) (B1U)
                 (B3G) (B1U) (B1U) (B2U) (B3G) (AG) (B3U) (B2U)
                 (AG) (B1G) (B1U) (AG) (AG) (B1U) (B2G) (B3G) (B2U)
                 (AU) (B1G) (B3U) (B2U) (B1U) (B2U) (AG) (B3G)
                 (B3U) (B3G) (AG) (AU) (B1G) (B1U) (B3G) (B1G)
                 (B1U) (B2G) (AG) (B3U) (B3G) (B2U) (AU) (AG) (B1U)
                 (B2U) (AG) (B1U) (B3G) (B1U) (B3G) (AG) (B2G)
                 (B1U) (B3U) (B1G) (AU) (B2U) (B2G) (AG) (B1U)
                 (B3U) (B3G) (AG) (B2G) (B2U) (B2U) (AG) (B3G)
                 (AU) (B1U) (B2U) (B1U) (AG) (B1G) (B2U) (B3U)
                 (B1G) (AG) (B2G) (B3G) (B3U) (B2U) (B1U) (AG)
                 (B2G) (B3G) (B1U) (B2U) (B3G) (AG) (AG) (B1G)
                 (B1U) (AU) (B2U) (B3U) (B1U) (B3G) (B2G) (AU)
                 (B3U) (B2U) (B3G) (B1G) (AU) (B2G) (AG) (B3G)
                 (B1U) (B2U) (B1U) (AG) (B2G) (AU) (B3G) (B2U)
                 (B1U) (B1G) (B3U) (AG) (B3G) (B2U) (B1U) (B2G)
                 (AU) (AG) (B3G) (B1U) (AG) (B2U) (AG) (B1U) (B1U)
                 (B2U) (B3G) (AG) (B1U) (B3G) (B2U) (AG) (B1U)
                 (B3G) (B2U) (B3G) (B1U) (AG) (B3G) (B1U) (AG)
                 (AG) (AG) (B1U) (B2U) (B2U) (B3G) (B1U) (B3G)
                 (AG) (B2U) (B1U) (AG) (B1U) (B2U) (AG) (B1U) (B3G)
                 (B2U) (AG) (B3G) (B1U) (B1U) (B3G) (AG) (B1U)
                 (AG) (B1U) (AG) (B2U) (AG) (B2U) (B3G) (B1U) (B2U)
                 (B3G) (B1U) (AG) (B1U) (B3G) (AG) (B1U) (AG) (B2U)
                 (B1U) (AG) (B3G) (B2U) (B3G) (B1U) (AG) (B1U)
 Beta  Orbitals:
       Occupied  (B1U) (AG) (B3G) (B2U) (B1U) (AG) (B3G) (B2U)
                 (AG) (B2U) (AG) (B1U) (B3G) (B1U) (?A) (?A) (AG)
                 (B1U) (B2U) (AG) (B3G) (AG) (B1U) (B2U) (AG) (B3G)
                 (B1U) (B2U) (B1U) (AG) (B3G) (B2U) (AG) (B1U)
                 (B3G) (B2U) (AG) (AG) (B3U) (B2U) (B1U) (B3G)
                 (B2U) (B1U) (B2G) (B1G) (AG) (B3G) (B3U) (AU)
                 (B3U) (B2G)
       Virtual   (B1G) (AU) (B3U) (B2G) (B1G) (AG) (B1U) (B2U)
                 (B2G) (B3G) (AG) (AG) (B1U) (B2U) (AU) (B1U) (AG)
                 (B3G) (B2U) (B3U) (B1U) (B3G) (AG) (B2U) (AG)
                 (B1U) (AG) (B2G) (B1U) (B2U) (B3G) (B1U) (AG)
                 (B3G) (B1U) (B2U) (AG) (B3U) (B3G) (B1U) (B2U)
                 (B1G) (B2G) (AG) (B3G) (B2U) (B2U) (B3U) (B1U)
                 (AU) (B3U) (B1U) (AG) (AG) (B2G) (B1G) (B1U) (B3G)
                 (B2G) (AG) (B3G) (B2U) (B3U) (B1G) (B1U) (AG)
                 (B2U) (B1U) (B3G) (AU) (B3G) (AG) (B2U) (AG) (B1U)
[...]
    10  C    0.000000  -0.000270  -0.000001  -0.000088   0.000001   0.000550
    11  C   -0.000005  -0.000013   0.000000   0.000000   0.000000  -0.000019
    12  H    0.000000   0.000000   0.000000   0.000000   0.000000   0.000076
    13  C   -0.000005   0.000003   0.000000   0.000000   0.000000  -0.000005
    14  C   -0.000019  -0.000001   0.000000   0.000000   0.000000  -0.000005
    15  C    0.000687  -0.000007   0.000004  -0.000008  -0.000042  -0.000002
    16  C    0.000550   0.000000  -0.000001   0.000001  -0.000088   0.000000
    17  C   -0.000270   0.000000   0.000038  -0.000005  -0.001509   0.000000
    18  H   -0.000059   0.000000   0.000000   0.000000   0.000076   0.000000
    19  H   -0.005183   0.000000   0.000000   0.000000   0.000000   0.000000
    20  H    0.000000  -0.005183   0.000000   0.000076   0.000000  -0.000059
    21  H    0.000000   0.000000   0.002644   0.000069   0.000069   0.000000
    22  H    0.000000   0.000076   0.000069  -0.012367   0.000004   0.000000
    23  H    0.000000   0.000000   0.000069   0.000004  -0.012367   0.000000
    24  H    0.000000  -0.000059   0.000000   0.000000   0.000000  -0.005183
    25  H    0.000000   0.000000   0.000000   0.000000   0.000000   0.000000
    26  H    0.000076   0.000000   0.000000   0.000000   0.000000   0.000000
             25         26
     1  C    0.000000   0.000000
     2  C    0.000000   0.000000
     3  C    0.000004  -0.000008
     4  C   -0.000048   0.000166
     5  C    0.000004  -0.000042
     6  C    0.000000   0.000000
     7  C   -0.000001   0.000001
     8  C    0.000180  -0.000037
     9  C   -0.000178  -0.000011
    10  C    0.000038  -0.000005
    11  C    0.000216   0.000206
    12  H    0.000069   0.000004
    13  C    0.000597  -0.000069
    14  C    0.000216  -0.000830
    15  C   -0.000178   0.003119
    16  C    0.000038  -0.001509
    17  C   -0.000001  -0.000088
    18  H    0.000000   0.000000
    19  H    0.000000   0.000076
    20  H    0.000000   0.000000
    21  H    0.000000   0.000000
    22  H    0.000000   0.000000
    23  H    0.000000   0.000000
    24  H    0.000000   0.000000
    25  H    0.002644   0.000069
    26  H    0.000069  -0.012367
 Mulliken atomic spin densities:
              1
     1  C   -0.091449
     2  C    0.228794
     3  C   -0.000432
     4  C   -0.012760
     5  C   -0.000432
     6  C    0.228794
     7  C    0.087262
     8  C   -0.012760
     9  C   -0.000432
    10  C    0.087262
    11  C    0.228794
    12  H   -0.011325
    13  C   -0.091449
    14  C    0.228794
    15  C   -0.000432
    16  C    0.087262
    17  C    0.087262
    18  H   -0.004029
    19  H   -0.004029
    20  H   -0.004029
    21  H    0.003668
    22  H   -0.011325
    23  H   -0.011325
    24  H   -0.004029
    25  H    0.003668
    26  H   -0.011325
 Sum of Mulliken spin densities=   1.00000
 Electronic spatial extent (au):  <R**2>=  2966.5894
 Charge=     1.0000 electrons
 Dipole moment (field-independent basis, Debye):
    X=     0.0000    Y=     0.0000    Z=     0.0000  Tot=     0.0000
 Quadrupole moment (field-independent basis, Debye-Ang):
   XX=   -93.9443   YY=   -54.8539   ZZ=   -43.1339
   XY=     0.0000   XZ=     0.0000   YZ=     0.0000
 Traceless Quadrupole moment (field-independent basis, Debye-Ang):
   XX=   -29.9669   YY=     9.1234   ZZ=    20.8435
   XY=     0.0000   XZ=     0.0000   YZ=     0.0000
 Octapole moment (field-independent basis, Debye-Ang**2):
  XXX=     0.0000  YYY=     0.0000  ZZZ=     0.0000  XYY=     0.0000
  XXY=     0.0000  XXZ=     0.0000  XZZ=     0.0000  YZZ=     0.0000
  YYZ=     0.0000  XYZ=     0.0000
 Hexadecapole moment (field-independent basis, Debye-Ang**3):
 XXXX=  -102.6007 YYYY= -1108.7709 ZZZZ= -1845.4297 XXXY=     0.0000
 XXXZ=     0.0000 YYYX=     0.0000 YYYZ=     0.0000 ZZZX=     0.0000
 ZZZY=     0.0000 XXYY=  -278.6918 XXZZ=  -481.0716 YYZZ=  -500.8105
 XXYZ=     0.0000 YYXZ=     0.0000 ZZXY=     0.0000
 N-N= 9.618403784378D+02 E-N=-3.332513417273D+03  KE= 6.104129529629D+02
                          Isotropic Fermi Contact Couplings
        Atom                 a.u.       MegaHertz       Gauss      10(-4) cm-1
     1  C(13)             -0.01581     -17.77419      -6.34227      -5.92883
     2  C(13)              0.01710      19.22025       6.85826       6.41119
     3  C(13)             -0.00791      -8.89716      -3.17473      -2.96777
     4  C(13)             -0.00057      -0.64129      -0.22883      -0.21391
     5  C(13)             -0.00791      -8.89716      -3.17473      -2.96777
     6  C(13)              0.01710      19.22025       6.85826       6.41119
     7  C(13)              0.00325       3.65192       1.30310       1.21815
     8  C(13)             -0.00057      -0.64129      -0.22883      -0.21391
     9  C(13)             -0.00791      -8.89716      -3.17473      -2.96777
    10  C(13)              0.00325       3.65192       1.30310       1.21815
    11  C(13)              0.01710      19.22025       6.85826       6.41119
    12  H(1)              -0.00364     -16.25815      -5.80131      -5.42313
    13  C(13)             -0.01581     -17.77419      -6.34227      -5.92883
    14  C(13)              0.01710      19.22025       6.85826       6.41119
    15  C(13)             -0.00791      -8.89716      -3.17473      -2.96777
    16  C(13)              0.00325       3.65192       1.30310       1.21815
    17  C(13)              0.00325       3.65192       1.30310       1.21815
    18  H(1)              -0.00136      -6.09150      -2.17360      -2.03191
    19  H(1)              -0.00136      -6.09150      -2.17360      -2.03191
    20  H(1)              -0.00136      -6.09150      -2.17360      -2.03191
    21  H(1)               0.00107       4.77540       1.70398       1.59290
    22  H(1)              -0.00364     -16.25815      -5.80131      -5.42313
    23  H(1)              -0.00364     -16.25815      -5.80131      -5.42313
    24  H(1)              -0.00136      -6.09150      -2.17360      -2.03191
    25  H(1)               0.00107       4.77540       1.70398       1.59290
    26  H(1)              -0.00364     -16.25815      -5.80131      -5.42313
 --------------------------------------------------------
       Center         ----  Spin Dipole Couplings  ----
                      3XX-RR        3YY-RR        3ZZ-RR
 --------------------------------------------------------
     1   Atom       -0.085294      0.048277      0.037017
     2   Atom        0.264341     -0.131501     -0.132840
     3   Atom       -0.000950     -0.004407      0.005357
     4   Atom       -0.010462      0.003956      0.006506
     5   Atom       -0.000950     -0.004407      0.005357
     6   Atom        0.264341     -0.131501     -0.132840
     7   Atom        0.101786     -0.055301     -0.046485
     8   Atom       -0.010462      0.003956      0.006506
     9   Atom       -0.000950     -0.004407      0.005357
    10   Atom        0.101786     -0.055301     -0.046485
    11   Atom        0.264341     -0.131501     -0.132840
    12   Atom       -0.002412      0.008353     -0.005941
    13   Atom       -0.085294      0.048277      0.037017
    14   Atom        0.264341     -0.131501     -0.132840
    15   Atom       -0.000950     -0.004407      0.005357
    16   Atom        0.101786     -0.055301     -0.046485
    17   Atom        0.101786     -0.055301     -0.046485
    18   Atom       -0.003276      0.002841      0.000434
    19   Atom       -0.003276      0.002841      0.000434
    20   Atom       -0.003276      0.002841      0.000434
    21   Atom       -0.003593      0.004551     -0.000958
    22   Atom       -0.002412      0.008353     -0.005941
    23   Atom       -0.002412      0.008353     -0.005941
    24   Atom       -0.003276      0.002841      0.000434
    25   Atom       -0.003593      0.004551     -0.000958
    26   Atom       -0.002412      0.008353     -0.005941
 --------------------------------------------------------
                        XY            XZ            YZ
 --------------------------------------------------------
     1   Atom        0.000000      0.000000      0.000000
     2   Atom        0.000000      0.000000      0.002870
     3   Atom        0.000000      0.000000     -0.003405
     4   Atom        0.000000      0.000000      0.000000
     5   Atom        0.000000      0.000000      0.003405
     6   Atom        0.000000      0.000000     -0.002870
     7   Atom        0.000000      0.000000     -0.001504
     8   Atom        0.000000      0.000000      0.000000
     9   Atom        0.000000      0.000000      0.003405
    10   Atom        0.000000      0.000000      0.001504
    11   Atom        0.000000      0.000000     -0.002870
    12   Atom        0.000000      0.000000     -0.016217
    13   Atom        0.000000      0.000000      0.000000
    14   Atom        0.000000      0.000000      0.002870
    15   Atom        0.000000      0.000000     -0.003405
    16   Atom        0.000000      0.000000     -0.001504
    17   Atom        0.000000      0.000000      0.001504
    18   Atom        0.000000      0.000000     -0.006410
    19   Atom        0.000000      0.000000      0.006410
    20   Atom        0.000000      0.000000      0.006410
    21   Atom        0.000000      0.000000      0.000000
    22   Atom        0.000000      0.000000      0.016217
    23   Atom        0.000000      0.000000     -0.016217
    24   Atom        0.000000      0.000000     -0.006410
    25   Atom        0.000000      0.000000      0.000000
    26   Atom        0.000000      0.000000      0.016217
 --------------------------------------------------------


 ---------------------------------------------------------------------------------
              Anisotropic Spin Dipole Couplings in Principal Axis System
 ---------------------------------------------------------------------------------

       Atom             a.u.   MegaHertz   Gauss  10(-4) cm-1        Axes

              Baa    -0.0853   -11.446    -4.084    -3.818  1.0000  0.0000  0.0000
     1 C(13)  Bbb     0.0370     4.967     1.772     1.657  0.0000  0.0000  1.0000
              Bcc     0.0483     6.478     2.312     2.161  0.0000  1.0000  0.0000
 
              Baa    -0.1351   -18.132    -6.470    -6.048  0.0000 -0.6216  0.7833
     2 C(13)  Bbb    -0.1292   -17.341    -6.188    -5.784  0.0000  0.7833  0.6216
              Bcc     0.2643    35.472    12.657    11.832  1.0000  0.0000  0.0000
 
              Baa    -0.0055    -0.735    -0.262    -0.245  0.0000  0.9540  0.2998
     3 C(13)  Bbb    -0.0010    -0.127    -0.045    -0.043  1.0000  0.0000  0.0000
              Bcc     0.0064     0.862     0.308     0.288  0.0000 -0.2998  0.9540
 
              Baa    -0.0105    -1.404    -0.501    -0.468  1.0000  0.0000  0.0000
     4 C(13)  Bbb     0.0040     0.531     0.189     0.177  0.0000  1.0000  0.0000
              Bcc     0.0065     0.873     0.312     0.291  0.0000  0.0000  1.0000
 
              Baa    -0.0055    -0.735    -0.262    -0.245  0.0000  0.9540 -0.2998
     5 C(13)  Bbb    -0.0010    -0.127    -0.045    -0.043  1.0000  0.0000  0.0000
              Bcc     0.0064     0.862     0.308     0.288  0.0000  0.2998  0.9540
 
              Baa    -0.1351   -18.132    -6.470    -6.048  0.0000  0.6216  0.7833
     6 C(13)  Bbb    -0.1292   -17.341    -6.188    -5.784  0.0000  0.7833 -0.6216
              Bcc     0.2643    35.472    12.657    11.832  1.0000  0.0000  0.0000
 
              Baa    -0.0556    -7.454    -2.660    -2.487  0.0000  0.9865  0.1637
     7 C(13)  Bbb    -0.0462    -6.204    -2.214    -2.070  0.0000 -0.1637  0.9865
              Bcc     0.1018    13.659     4.874     4.556  1.0000  0.0000  0.0000
 
              Baa    -0.0105    -1.404    -0.501    -0.468  1.0000  0.0000  0.0000
     8 C(13)  Bbb     0.0040     0.531     0.189     0.177  0.0000  1.0000  0.0000
              Bcc     0.0065     0.873     0.312     0.291  0.0000  0.0000  1.0000
 
              Baa    -0.0055    -0.735    -0.262    -0.245  0.0000  0.9540 -0.2998
     9 C(13)  Bbb    -0.0010    -0.127    -0.045    -0.043  1.0000  0.0000  0.0000
              Bcc     0.0064     0.862     0.308     0.288  0.0000  0.2998  0.9540
 
              Baa    -0.0556    -7.454    -2.660    -2.487  0.0000  0.9865 -0.1637
    10 C(13)  Bbb    -0.0462    -6.204    -2.214    -2.070  0.0000  0.1637  0.9865
              Bcc     0.1018    13.659     4.874     4.556  1.0000  0.0000  0.0000
 
              Baa    -0.1351   -18.132    -6.470    -6.048  0.0000  0.6216  0.7833
    11 C(13)  Bbb    -0.1292   -17.341    -6.188    -5.784  0.0000  0.7833 -0.6216
              Bcc     0.2643    35.472    12.657    11.832  1.0000  0.0000  0.0000
 
              Baa    -0.0165    -8.812    -3.144    -2.939  0.0000  0.5462  0.8376
    12 H(1)   Bbb    -0.0024    -1.287    -0.459    -0.429  1.0000  0.0000  0.0000
              Bcc     0.0189    10.099     3.604     3.369  0.0000  0.8376 -0.5462
 
              Baa    -0.0853   -11.446    -4.084    -3.818  1.0000  0.0000  0.0000
    13 C(13)  Bbb     0.0370     4.967     1.772     1.657  0.0000  0.0000  1.0000
              Bcc     0.0483     6.478     2.312     2.161  0.0000  1.0000  0.0000
 
              Baa    -0.1351   -18.132    -6.470    -6.048  0.0000 -0.6216  0.7833
    14 C(13)  Bbb    -0.1292   -17.341    -6.188    -5.784  0.0000  0.7833  0.6216
              Bcc     0.2643    35.472    12.657    11.832  1.0000  0.0000  0.0000
 
              Baa    -0.0055    -0.735    -0.262    -0.245  0.0000  0.9540  0.2998
    15 C(13)  Bbb    -0.0010    -0.127    -0.045    -0.043  1.0000  0.0000  0.0000
              Bcc     0.0064     0.862     0.308     0.288  0.0000 -0.2998  0.9540
 
              Baa    -0.0556    -7.454    -2.660    -2.487  0.0000  0.9865  0.1637
    16 C(13)  Bbb    -0.0462    -6.204    -2.214    -2.070  0.0000 -0.1637  0.9865
              Bcc     0.1018    13.659     4.874     4.556  1.0000  0.0000  0.0000
 
              Baa    -0.0556    -7.454    -2.660    -2.487  0.0000  0.9865 -0.1637
    17 C(13)  Bbb    -0.0462    -6.204    -2.214    -2.070  0.0000  0.1637  0.9865
              Bcc     0.1018    13.659     4.874     4.556  1.0000  0.0000  0.0000
 
              Baa    -0.0049    -2.606    -0.930    -0.869  0.0000  0.6386  0.7696
    18 H(1)   Bbb    -0.0033    -1.748    -0.624    -0.583  1.0000  0.0000  0.0000
              Bcc     0.0082     4.354     1.554     1.452  0.0000  0.7696 -0.6386
 
              Baa    -0.0049    -2.606    -0.930    -0.869  0.0000 -0.6386  0.7696
    19 H(1)   Bbb    -0.0033    -1.748    -0.624    -0.583  1.0000  0.0000  0.0000
              Bcc     0.0082     4.354     1.554     1.452  0.0000  0.7696  0.6386
 
              Baa    -0.0049    -2.606    -0.930    -0.869  0.0000 -0.6386  0.7696
    20 H(1)   Bbb    -0.0033    -1.748    -0.624    -0.583  1.0000  0.0000  0.0000
              Bcc     0.0082     4.354     1.554     1.452  0.0000  0.7696  0.6386
 
              Baa    -0.0036    -1.917    -0.684    -0.639  1.0000  0.0000  0.0000
    21 H(1)   Bbb    -0.0010    -0.511    -0.182    -0.170  0.0000  0.0000  1.0000
              Bcc     0.0046     2.428     0.866     0.810  0.0000  1.0000  0.0000
 
              Baa    -0.0165    -8.812    -3.144    -2.939  0.0000 -0.5462  0.8376
    22 H(1)   Bbb    -0.0024    -1.287    -0.459    -0.429  1.0000  0.0000  0.0000
              Bcc     0.0189    10.099     3.604     3.369  0.0000  0.8376  0.5462
 
              Baa    -0.0165    -8.812    -3.144    -2.939  0.0000  0.5462  0.8376
    23 H(1)   Bbb    -0.0024    -1.287    -0.459    -0.429  1.0000  0.0000  0.0000
              Bcc     0.0189    10.099     3.604     3.369  0.0000  0.8376 -0.5462
 
              Baa    -0.0049    -2.606    -0.930    -0.869  0.0000  0.6386  0.7696
    24 H(1)   Bbb    -0.0033    -1.748    -0.624    -0.583  1.0000  0.0000  0.0000
              Bcc     0.0082     4.354     1.554     1.452  0.0000  0.7696 -0.6386
 
              Baa    -0.0036    -1.917    -0.684    -0.639  1.0000  0.0000  0.0000
    25 H(1)   Bbb    -0.0010    -0.511    -0.182    -0.170  0.0000  0.0000  1.0000
              Bcc     0.0046     2.428     0.866     0.810  0.0000  1.0000  0.0000
 
              Baa    -0.0165    -8.812    -3.144    -2.939  0.0000 -0.5462  0.8376
    26 H(1)   Bbb    -0.0024    -1.287    -0.459    -0.429  1.0000  0.0000  0.0000
              Bcc     0.0189    10.099     3.604     3.369  0.0000  0.8376  0.5462
 

 ---------------------------------------------------------------------------------

 No NMR shielding tensors so no spin-rotation constants.
 Leave Link  601 at Sat Mar 10 00:15:14 2007, MaxMem=  536870912 cpu:       1.1
 (Enter /home/konrad/guests/guik/Gaussian/g03/l9999.exe)
 Final structure in terms of initial Z-matrix:
 C
 C,1,B1
 C,2,B2,1,A1
 C,3,B3,2,A2,1,D1,0
 C,4,B4,3,A3,2,D2,0
 C,1,B5,2,A4,3,D3,0
 C,3,B6,2,A5,1,D4,0
 C,4,B7,3,A6,2,D5,0
 C,8,B8,4,A7,3,D6,0
 C,7,B9,3,A8,2,D7,0
 C,9,B10,8,A9,4,D8,0
 H,11,B11,9,A10,8,D9,0
 C,11,B12,9,A11,8,D10,0
 C,13,B13,11,A12,9,D11,0
 C,14,B14,13,A13,11,D12,0
 C,15,B15,14,A14,13,D13,0
 C,16,B16,15,A15,14,D14,0
 H,17,B17,16,A16,15,D15,0
 H,16,B18,15,A17,14,D16,0
 H,7,B19,3,A18,2,D17,0
 H,1,B20,2,A19,3,D18,0
 H,2,B21,1,A20,6,D19,0
 H,6,B22,1,A21,2,D20,0
 H,10,B23,7,A22,3,D21,0
 H,13,B24,11,A23,9,D22,0
 H,14,B25,13,A24,11,D23,0
      Variables:
 B1=1.4004004
 B2=1.42882572
 B3=1.42856821
 B4=1.42856821
 B5=1.4004004
 B6=1.42452863
 B7=1.42092783
 B8=1.42856821
 B9=1.39196952
 B10=1.42882572
 B11=1.08624255
 B12=1.4004004
 B13=1.4004004
 B14=1.42882572
 B15=1.42452863
 B16=1.39196952
 B17=1.08539576
 B18=1.08539576
 B19=1.08539576
 B20=1.08425583
 B21=1.08624255
 B22=1.08624255
 B23=1.08539576
 B24=1.08425583
 B25=1.08624255
 A1=120.86444266
 A2=119.06307566
 A3=119.99413183
 A4=120.15083152
 A5=121.71209048
 A6=120.00293409
 A7=120.00293409
 A8=120.77223206
 A9=119.06307566
 A10=119.0104702
 A11=120.86444266
 A12=120.15083152
 A13=120.86444266
 A14=121.71209048
 A15=120.77223206
 A16=120.01732727
 A17=119.21044067
 A18=119.21044067
 A19=119.92458424
 A20=120.12508714
 A21=120.12508714
 A22=120.01732727
 A23=119.92458424
 A24=120.12508714
 D1=0.
 D2=0.
 D3=0.
 D4=180.
 D5=180.
 D6=0.
 D7=180.
 D8=180.
 D9=180.
 D10=0.
 D11=0.
 D12=0.
 D13=180.
 D14=180.
 D15=180.
 D16=0.
 D17=0.
 D18=180.
 D19=180.
 D20=180.
 D21=180.
 D22=180.
 D23=180.
 1\1\GINC-COMP01\FOpt\UB3LYP\EPR-II\C16H10(1+,2)\GUIK\10-Mar-2007\0\\#p
  opt=(tight,gdiis) ub3lyp/EPR-II scrf=(scipcm,solvent=thf) guess=mix g
 eom=connectivity scf=(tight,novaracc,noincfock) integral=(grid=ultrafi
 ne)\\Pyrene cation radical in various solvents.\\1,2\C,-0.0313907343,0
 .,-0.0178581425\C,-0.0243247133,0.,1.3825244348\C,1.2058385219,0.,2.10
 9326581\C,2.43848259,0.,1.3872492017\C,2.4293209606,0.,-0.0412896338\C
 ,1.1759795868,0.,-0.72734965\C,1.2340992893,0.,3.5335748507\C,3.673537
 2203,0.,2.0898699858\C,3.6826988497,0.,3.5184088214\C,2.4439836748,0.,
 4.2218763191\C,4.9360402235,0.,4.2044688375\H,4.9420091618,0.,5.290694
 9889\C,6.1434105446,0.,3.4949773301\C,6.1363445236,0.,2.0945947528\C,4
 .9061812884,0.,1.3677926066\C,4.877920521,0.,-0.0564556631\C,3.6680361
 355,0.,-0.7447571315\H,3.6608026695,0.,-1.8301287847\H,5.8145950657,0.
 ,-0.604839421\H,0.2974247446,0.,4.0819586086\H,-0.9738138119,0.,-0.554
 0012616\H,-0.9610876326,0.,1.9324318026\H,1.1700106485,0.,-1.813575801
 4\H,2.4512171408,0.,5.3072479723\H,7.0858336222,0.,4.0311204492\H,7.07
 31074429,0.,1.544687385\\Version=AM64L-G03RevD.02\State=2-B1G\HF=-615.
 645445\S2=0.773064\S2-1=0.\S2A=0.750412\RMSD=2.616e-09\RMSF=2.983e-06\
 Thermal=0.\Dipole=0.,0.,0.\PG=D02H [C2"(H1C1C1.C1C1H1),SG(C12H8)]\\@


 Cherishing children is the mark of a civilized society.
 -- Joan Ganz Cooney
 Job cpu time:  0 days  3 hours 18 minutes 37.9 seconds.
 File lengths (MBytes):  RWF=    117 Int=      0 D2E=      0 Chk=     18 Scr=      1
 Normal termination of Gaussian 03 at Sat Mar 10 00:15:23 2007.
