 Entering Gaussian System, Link 0=/usr/local/Chem-Apps/g03_d01/g03/g03
 Initial command:
 /usr/local/Chem-Apps/g03_d01/g03/l1.exe /scratch/LSF_69107/Gau-23586.inp -scrdir=/scratch/LSF_69107/
 Entering Link 1 = /usr/local/Chem-Apps/g03_d01/g03/l1.exe PID=     23587.
  
 Copyright (c) 1988,1990,1992,1993,1995,1998,2003,2004, Gaussian, Inc.
                  All Rights Reserved.
  
 This is the Gaussian(R) 03 program.  It is based on the
 the Gaussian(R) 98 system (copyright 1998, Gaussian, Inc.),
 the Gaussian(R) 94 system (copyright 1995, Gaussian, Inc.),
 the Gaussian 92(TM) system (copyright 1992, Gaussian, Inc.),
 the Gaussian 90(TM) system (copyright 1990, Gaussian, Inc.),
 the Gaussian 88(TM) system (copyright 1988, Gaussian, Inc.),
 the Gaussian 86(TM) system (copyright 1986, Carnegie Mellon
 University), and the Gaussian 82(TM) system (copyright 1983,
 Carnegie Mellon University). Gaussian is a federally registered
 trademark of Gaussian, Inc.
  
 This software contains proprietary and confidential information,
 including trade secrets, belonging to Gaussian, Inc.
  
 This software is provided under written license and may be
 used, copied, transmitted, or stored only in accord with that
 written license.
  
 The following legend is applicable only to US Government
 contracts under FAR:
  
                    RESTRICTED RIGHTS LEGEND
  
 Use, reproduction and disclosure by the US Government is
 subject to restrictions as set forth in subparagraphs (a)
 and (c) of the Commercial Computer Software - Restricted
 Rights clause in FAR 52.227-19.
  
 Gaussian, Inc.
 340 Quinnipiac St., Bldg. 40, Wallingford CT 06492
  
  
 ---------------------------------------------------------------
 Warning -- This program may not be used in any manner that
 competes with the business of Gaussian, Inc. or will provide
 assistance to any competitor of Gaussian, Inc.  The licensee
 of this program is prohibited from giving any competitor of
 Gaussian, Inc. access to this program.  By using this program,
 the user acknowledges that Gaussian, Inc. is engaged in the
 business of creating and licensing software in the field of
 computational chemistry and represents and warrants to the
 licensee that it is not a competitor of Gaussian, Inc. and that
 it will not use this program in any manner prohibited above.
 ---------------------------------------------------------------
  

 Cite this work as:
 Gaussian 03, Revision D.01,
 M. J. Frisch, G. W. Trucks, H. B. Schlegel, G. E. Scuseria, 
 M. A. Robb, J. R. Cheeseman, J. A. Montgomery, Jr., T. Vreven, 
 K. N. Kudin, J. C. Burant, J. M. Millam, S. S. Iyengar, J. Tomasi, 
 V. Barone, B. Mennucci, M. Cossi, G. Scalmani, N. Rega, 
 G. A. Petersson, H. Nakatsuji, M. Hada, M. Ehara, K. Toyota, 
 R. Fukuda, J. Hasegawa, M. Ishida, T. Nakajima, Y. Honda, O. Kitao, 
 H. Nakai, M. Klene, X. Li, J. E. Knox, H. P. Hratchian, J. B. Cross, 
 V. Bakken, C. Adamo, J. Jaramillo, R. Gomperts, R. E. Stratmann, 
 O. Yazyev, A. J. Austin, R. Cammi, C. Pomelli, J. W. Ochterski, 
 P. Y. Ayala, K. Morokuma, G. A. Voth, P. Salvador, J. J. Dannenberg, 
 V. G. Zakrzewski, S. Dapprich, A. D. Daniels, M. C. Strain, 
 O. Farkas, D. K. Malick, A. D. Rabuck, K. Raghavachari, 
 J. B. Foresman, J. V. Ortiz, Q. Cui, A. G. Baboul, S. Clifford, 
 J. Cioslowski, B. B. Stefanov, G. Liu, A. Liashenko, P. Piskorz, 
 I. Komaromi, R. L. Martin, D. J. Fox, T. Keith, M. A. Al-Laham, 
 C. Y. Peng, A. Nanayakkara, M. Challacombe, P. M. W. Gill, 
 B. Johnson, W. Chen, M. W. Wong, C. Gonzalez, and J. A. Pople, 
 Gaussian, Inc., Wallingford CT, 2004.
 
 ******************************************
 Gaussian 03:  IA64L-G03RevD.01 13-Oct-2005
                 2-Aug-2008 
 ******************************************
 %Mem=4GB
 %NProcShared=16
 Will use up to   16 processors via shared memory.
 %Chk=molecule_10.chk
 Default route:  MaxDisk=64GB Cachesize=589840
 ----------------------------------------------------------------------
 #p opt=gdiis b3lyp/Gen scf=tight pseudo=read integral=(grid=ultrafine)
 ----------------------------------------------------------------------
 1/4=589840,14=-1,18=20,19=11,26=3,38=1/1,3;
 2/4=589840,9=110,17=6,18=5,40=1/2;
 3/4=589840,5=7,11=2,16=1,17=8,25=1,30=1,74=-5,75=5/1,2,3;
 4/4=589840/1;
 5/4=589840,5=2,32=2,38=5/2;
 6/4=589840,7=2,8=2,9=2,10=2,28=1/1;
 7/4=589840/1,2,3,16;
 1/4=589840,14=-1,18=20,19=11/3(3);
 2/4=589840,9=110/2;
 6/4=589840,7=2,8=2,9=2,10=2,19=2,28=1/1;
 99/4=589840/99;
 2/4=589840,9=110/2;
 3/4=589840,5=7,6=1,11=2,16=1,17=8,25=1,30=1,74=-5,75=5,82=7/1,2,3;
 4/4=589840,5=5,16=3/1;
 5/4=589840,5=2,32=2,38=5/2;
 7/4=589840/1,2,3,16;
 1/4=589840,14=-1,18=20,19=11/3(-5);
 2/4=589840,9=110/2;
 6/4=589840,7=2,8=2,9=2,10=2,19=2,28=1/1;
 99/4=589840,9=1/99;
 Leave Link    1 at Sat Aug  2 18:43:14 2008, MaxMem=  536870912 cpu:       2.2
 (Enter /usr/local/Chem-Apps/g03_d01/g03/l101.exe)
 ----------------------
 Molecule 10, geometry.
 ----------------------
 Symbolic Z-matrix:
 Charge =  0 Multiplicity = 1
 C                    -1.69668   0.09663  -0.60776 
 H                    -1.31143   0.46003  -1.57083 
 H                    -1.82797   0.96997   0.04134 
 N                    -0.62119  -0.73928  -0.0283 
 H                    -0.85925  -1.08136   0.91116 
 P                     1.15434   0.15724   0.28737 
 O                     1.87391  -1.1354    0.74928 
 O                     0.72073   1.15403   1.38458 
 C                    -2.98189  -0.66166  -0.7839 
 H                    -2.9299   -1.56413  -1.4031 
 C                    -4.15431  -0.30111  -0.25106 
 H                    -5.06248  -0.88003  -0.42433 
 H                    -4.24336   0.589     0.37502 
 O                    -0.04659  -1.16589   2.94025 
 H                     0.7387   -1.50082   2.46654 
 H                     0.08036  -0.20735   2.8008 
 O                     1.18926  -2.67675  -1.443 
 H                     1.60115  -2.31345  -0.62104 
 H                     1.43447  -1.99352  -2.08562 
 O                    -0.35366   3.44941   0.18127 
 H                     0.01025   2.72692   0.74003 
 H                     0.08878   3.26304  -0.65908 
 H                    -0.37871  -1.5448   -0.6202 
 S                     1.61033   0.89503  -1.58114 
 I                     3.83965   1.60524  -1.61782 
 
                    Isotopes and Nuclear Properties:
 (Nuclear quadrupole moments (NQMom) in fm**2, nuclear magnetic moments (NMagM)
  in nuclear magnetons)

  Atom         1           2           3           4           5           6           7           8           9          10
 IAtWgt=          12           1           1          14           1          31          16          16          12           1
 AtmWgt=  12.0000000   1.0078250   1.0078250  14.0030740   1.0078250  30.9737634  15.9949146  15.9949146  12.0000000   1.0078250
 NucSpn=           0           1           1           2           1           1           0           0           0           1
 AtZEff=   0.0000000   0.0000000   0.0000000   0.0000000   0.0000000   0.0000000   0.0000000   0.0000000   0.0000000   0.0000000
 NQMom=    0.0000000   0.0000000   0.0000000   2.0440000   0.0000000   0.0000000   0.0000000   0.0000000   0.0000000   0.0000000
 NMagM=    0.0000000   2.7928460   2.7928460   0.4037610   2.7928460   1.1316000   0.0000000   0.0000000   0.0000000   2.7928460

  Atom        11          12          13          14          15          16          17          18          19          20
 IAtWgt=          12           1           1          16           1           1          16           1           1          16
 AtmWgt=  12.0000000   1.0078250   1.0078250  15.9949146   1.0078250   1.0078250  15.9949146   1.0078250   1.0078250  15.9949146
 NucSpn=           0           1           1           0           1           1           0           1           1           0
 AtZEff=   0.0000000   0.0000000   0.0000000   0.0000000   0.0000000   0.0000000   0.0000000   0.0000000   0.0000000   0.0000000
 NQMom=    0.0000000   0.0000000   0.0000000   0.0000000   0.0000000   0.0000000   0.0000000   0.0000000   0.0000000   0.0000000
 NMagM=    0.0000000   2.7928460   2.7928460   0.0000000   2.7928460   2.7928460   0.0000000   2.7928460   2.7928460   0.0000000

  Atom        21          22          23          24          25
 IAtWgt=           1           1           1          32         127
 AtmWgt=   1.0078250   1.0078250   1.0078250  31.9720718 126.9004000
 NucSpn=           1           1           1           0           5
 AtZEff=   0.0000000   0.0000000   0.0000000   0.0000000   0.0000000
 NQMom=    0.0000000   0.0000000   0.0000000   0.0000000 -71.0000000
 NMagM=    2.7928460   2.7928460   2.7928460   0.0000000   2.8132800
 Leave Link  101 at Sat Aug  2 18:43:14 2008, MaxMem=  536870912 cpu:       1.2
 (Enter /usr/local/Chem-Apps/g03_d01/g03/l103.exe)

 GradGradGradGradGradGradGradGradGradGradGradGradGradGradGradGradGradGrad
 Berny optimization.
 Initialization pass.
                           ----------------------------
                           !    Initial Parameters    !
                           ! (Angstroms and Degrees)  !
 --------------------------                            --------------------------
 ! Name  Definition              Value          Derivative Info.                !
 --------------------------------------------------------------------------------
 ! R1    R(1,2)                  1.0991         estimate D2E/DX2                !
 ! R2    R(1,3)                  1.096          estimate D2E/DX2                !
 ! R3    R(1,4)                  1.4803         estimate D2E/DX2                !
 ! R4    R(1,9)                  1.5026         estimate D2E/DX2                !
 ! R5    R(4,5)                  1.0277         estimate D2E/DX2                !
 ! R6    R(4,6)                  2.0139         estimate D2E/DX2                !
 ! R7    R(4,23)                 1.0286         estimate D2E/DX2                !
 ! R8    R(5,14)                 2.1874         estimate D2E/DX2                !
 ! R9    R(6,7)                  1.5499         estimate D2E/DX2                !
 ! R10   R(6,8)                  1.5445         estimate D2E/DX2                !
 ! R11   R(6,24)                 2.06           estimate D2E/DX2                !
 ! R12   R(7,15)                 2.0907         estimate D2E/DX2                !
 ! R13   R(7,18)                 1.8276         estimate D2E/DX2                !
 ! R14   R(8,16)                 2.0662         estimate D2E/DX2                !
 ! R15   R(8,21)                 1.8423         estimate D2E/DX2                !
 ! R16   R(9,10)                 1.0957         estimate D2E/DX2                !
 ! R17   R(9,11)                 1.3373         estimate D2E/DX2                !
 ! R18   R(11,12)                1.0908         estimate D2E/DX2                !
 ! R19   R(11,13)                1.0919         estimate D2E/DX2                !
 ! R20   R(14,15)                0.9763         estimate D2E/DX2                !
 ! R21   R(14,16)                0.9769         estimate D2E/DX2                !
 ! R22   R(17,18)                0.9886         estimate D2E/DX2                !
 ! R23   R(17,19)                0.9695         estimate D2E/DX2                !
 ! R24   R(17,23)                2.1016         estimate D2E/DX2                !
 ! R25   R(20,21)                0.9832         estimate D2E/DX2                !
 ! R26   R(20,22)                0.9678         estimate D2E/DX2                !
 ! R27   R(24,25)                2.34           estimate D2E/DX2                !
 ! A1    A(2,1,3)              107.3054         estimate D2E/DX2                !
 ! A2    A(2,1,4)              105.9651         estimate D2E/DX2                !
 ! A3    A(2,1,9)              111.3429         estimate D2E/DX2                !
 ! A4    A(3,1,4)              107.7685         estimate D2E/DX2                !
 ! A5    A(3,1,9)              111.659          estimate D2E/DX2                !
 ! A6    A(4,1,9)              112.4792         estimate D2E/DX2                !
 ! A7    A(1,4,5)              112.1778         estimate D2E/DX2                !
 ! A8    A(1,4,6)              116.777          estimate D2E/DX2                !
 ! A9    A(1,4,23)             112.8457         estimate D2E/DX2                !
 ! A10   A(5,4,6)              102.07           estimate D2E/DX2                !
 ! A11   A(5,4,23)             108.6604         estimate D2E/DX2                !
 ! A12   A(6,4,23)             103.355          estimate D2E/DX2                !
 ! A13   A(4,5,14)             140.7809         estimate D2E/DX2                !
 ! A14   A(4,6,7)               94.862          estimate D2E/DX2                !
 ! A15   A(4,6,8)               98.6928         estimate D2E/DX2                !
 ! A16   A(4,6,24)             102.2639         estimate D2E/DX2                !
 ! A17   A(7,6,8)              117.1867         estimate D2E/DX2                !
 ! A18   A(7,6,24)             117.7925         estimate D2E/DX2                !
 ! A19   A(8,6,24)             118.3831         estimate D2E/DX2                !
 ! A20   A(6,7,15)              97.9598         estimate D2E/DX2                !
 ! A21   A(6,7,18)             104.1737         estimate D2E/DX2                !
 ! A22   A(15,7,18)            114.9714         estimate D2E/DX2                !
 ! A23   A(6,8,16)              98.5523         estimate D2E/DX2                !
 ! A24   A(6,8,21)             114.2499         estimate D2E/DX2                !
 ! A25   A(16,8,21)            133.0632         estimate D2E/DX2                !
 ! A26   A(1,9,10)             116.1875         estimate D2E/DX2                !
 ! A27   A(1,9,11)             124.5473         estimate D2E/DX2                !
 ! A28   A(10,9,11)            119.2631         estimate D2E/DX2                !
 ! A29   A(9,11,12)            121.5672         estimate D2E/DX2                !
 ! A30   A(9,11,13)            121.3147         estimate D2E/DX2                !
 ! A31   A(12,11,13)           117.1179         estimate D2E/DX2                !
 ! A32   A(5,14,15)             82.0686         estimate D2E/DX2                !
 ! A33   A(5,14,16)             82.9895         estimate D2E/DX2                !
 ! A34   A(15,14,16)            99.3707         estimate D2E/DX2                !
 ! A35   A(7,15,14)            140.8294         estimate D2E/DX2                !
 ! A36   A(8,16,14)            141.6842         estimate D2E/DX2                !
 ! A37   A(18,17,19)           100.7639         estimate D2E/DX2                !
 ! A38   A(18,17,23)            77.7247         estimate D2E/DX2                !
 ! A39   A(19,17,23)            93.9356         estimate D2E/DX2                !
 ! A40   A(7,18,17)            157.2971         estimate D2E/DX2                !
 ! A41   A(21,20,22)           100.5297         estimate D2E/DX2                !
 ! A42   A(8,21,20)            165.6844         estimate D2E/DX2                !
 ! A43   A(4,23,17)            145.383          estimate D2E/DX2                !
 ! A44   A(6,24,25)            109.5            estimate D2E/DX2                !
 ! D1    D(2,1,4,5)            176.2445         estimate D2E/DX2                !
 ! D2    D(2,1,4,6)             58.9448         estimate D2E/DX2                !
 ! D3    D(2,1,4,23)           -60.6165         estimate D2E/DX2                !
 ! D4    D(3,1,4,5)             61.6259         estimate D2E/DX2                !
 ! D5    D(3,1,4,6)            -55.6738         estimate D2E/DX2                !
 ! D6    D(3,1,4,23)          -175.2351         estimate D2E/DX2                !
 ! D7    D(9,1,4,5)            -61.8813         estimate D2E/DX2                !
 ! D8    D(9,1,4,6)           -179.181          estimate D2E/DX2                !
 ! D9    D(9,1,4,23)            61.2577         estimate D2E/DX2                !
 ! D10   D(2,1,9,10)            61.3991         estimate D2E/DX2                !
 ! D11   D(2,1,9,11)          -118.061          estimate D2E/DX2                !
 ! D12   D(3,1,9,10)          -178.6802         estimate D2E/DX2                !
 ! D13   D(3,1,9,11)             1.8596         estimate D2E/DX2                !
 ! D14   D(4,1,9,10)           -57.3695         estimate D2E/DX2                !
 ! D15   D(4,1,9,11)           123.1704         estimate D2E/DX2                !
 ! D16   D(1,4,5,14)          -128.2422         estimate D2E/DX2                !
 ! D17   D(6,4,5,14)            -2.4619         estimate D2E/DX2                !
 ! D18   D(23,4,5,14)          106.2934         estimate D2E/DX2                !
 ! D19   D(1,4,6,7)           -175.4812         estimate D2E/DX2                !
 ! D20   D(1,4,6,8)             66.0373         estimate D2E/DX2                !
 ! D21   D(1,4,6,24)           -55.6548         estimate D2E/DX2                !
 ! D22   D(5,4,6,7)             61.8155         estimate D2E/DX2                !
 ! D23   D(5,4,6,8)            -56.666          estimate D2E/DX2                !
 ! D24   D(5,4,6,24)          -178.3581         estimate D2E/DX2                !
 ! D25   D(23,4,6,7)           -50.9556         estimate D2E/DX2                !
 ! D26   D(23,4,6,8)          -169.4371         estimate D2E/DX2                !
 ! D27   D(23,4,6,24)           68.8707         estimate D2E/DX2                !
 ! D28   D(1,4,23,17)          135.5055         estimate D2E/DX2                !
 ! D29   D(5,4,23,17)          -99.4215         estimate D2E/DX2                !
 ! D30   D(6,4,23,17)            8.4581         estimate D2E/DX2                !
 ! D31   D(4,5,14,15)          -49.2569         estimate D2E/DX2                !
 ! D32   D(4,5,14,16)           51.2739         estimate D2E/DX2                !
 ! D33   D(4,6,7,15)           -63.5531         estimate D2E/DX2                !
 ! D34   D(4,6,7,18)            54.8044         estimate D2E/DX2                !
 ! D35   D(8,6,7,15)            38.8162         estimate D2E/DX2                !
 ! D36   D(8,6,7,18)           157.1736         estimate D2E/DX2                !
 ! D37   D(24,6,7,15)         -170.1607         estimate D2E/DX2                !
 ! D38   D(24,6,7,18)          -51.8032         estimate D2E/DX2                !
 ! D39   D(4,6,8,16)            60.4841         estimate D2E/DX2                !
 ! D40   D(4,6,8,21)           -85.1092         estimate D2E/DX2                !
 ! D41   D(7,6,8,16)           -39.5899         estimate D2E/DX2                !
 ! D42   D(7,6,8,21)           174.8168         estimate D2E/DX2                !
 ! D43   D(24,6,8,16)          169.5622         estimate D2E/DX2                !
 ! D44   D(24,6,8,21)           23.9689         estimate D2E/DX2                !
 ! D45   D(4,6,24,25)         -168.2021         estimate D2E/DX2                !
 ! D46   D(7,6,24,25)          -65.9263         estimate D2E/DX2                !
 ! D47   D(8,6,24,25)           84.7452         estimate D2E/DX2                !
 ! D48   D(6,7,15,14)            5.8429         estimate D2E/DX2                !
 ! D49   D(18,7,15,14)        -103.9035         estimate D2E/DX2                !
 ! D50   D(6,7,18,17)          -15.4777         estimate D2E/DX2                !
 ! D51   D(15,7,18,17)          90.4943         estimate D2E/DX2                !
 ! D52   D(6,8,16,14)           -3.3782         estimate D2E/DX2                !
 ! D53   D(21,8,16,14)         131.7779         estimate D2E/DX2                !
 ! D54   D(6,8,21,20)            7.4783         estimate D2E/DX2                !
 ! D55   D(16,8,21,20)        -122.6305         estimate D2E/DX2                !
 ! D56   D(1,9,11,12)          178.9719         estimate D2E/DX2                !
 ! D57   D(1,9,11,13)           -0.8548         estimate D2E/DX2                !
 ! D58   D(10,9,11,12)          -0.4727         estimate D2E/DX2                !
 ! D59   D(10,9,11,13)         179.7005         estimate D2E/DX2                !
 ! D60   D(5,14,15,7)           42.6711         estimate D2E/DX2                !
 ! D61   D(16,14,15,7)         -38.8244         estimate D2E/DX2                !
 ! D62   D(5,14,16,8)          -42.9551         estimate D2E/DX2                !
 ! D63   D(15,14,16,8)          37.7683         estimate D2E/DX2                !
 ! D64   D(19,17,18,7)          63.8161         estimate D2E/DX2                !
 ! D65   D(23,17,18,7)         -27.9107         estimate D2E/DX2                !
 ! D66   D(18,17,23,4)          27.3445         estimate D2E/DX2                !
 ! D67   D(19,17,23,4)         -72.8282         estimate D2E/DX2                !
 ! D68   D(22,20,21,8)         -28.3225         estimate D2E/DX2                !
 --------------------------------------------------------------------------------
 Trust Radius=3.00D-01 FncErr=1.00D-07 GrdErr=1.00D-06
 Number of steps in this run= 149 maximum allowed number of steps= 150.
 GradGradGradGradGradGradGradGradGradGradGradGradGradGradGradGradGradGrad

 Leave Link  103 at Sat Aug  2 18:43:15 2008, MaxMem=  536870912 cpu:       0.6
 (Enter /usr/local/Chem-Apps/g03_d01/g03/l202.exe)
                          Input orientation:                          
 ---------------------------------------------------------------------
 Center     Atomic     Atomic              Coordinates (Angstroms)
 Number     Number      Type              X           Y           Z
 ---------------------------------------------------------------------
    1          6             0       -1.696679    0.096628   -0.607756
    2          1             0       -1.311428    0.460028   -1.570833
    3          1             0       -1.827971    0.969965    0.041335
    4          7             0       -0.621187   -0.739283   -0.028301
    5          1             0       -0.859252   -1.081359    0.911155
    6         15             0        1.154337    0.157239    0.287370
    7          8             0        1.873907   -1.135399    0.749280
    8          8             0        0.720725    1.154025    1.384583
    9          6             0       -2.981893   -0.661663   -0.783896
   10          1             0       -2.929898   -1.564125   -1.403098
   11          6             0       -4.154311   -0.301111   -0.251059
   12          1             0       -5.062478   -0.880031   -0.424332
   13          1             0       -4.243356    0.588998    0.375024
   14          8             0       -0.046585   -1.165892    2.940246
   15          1             0        0.738702   -1.500819    2.466544
   16          1             0        0.080358   -0.207345    2.800800
   17          8             0        1.189259   -2.676753   -1.443001
   18          1             0        1.601151   -2.313454   -0.621043
   19          1             0        1.434466   -1.993523   -2.085622
   20          8             0       -0.353658    3.449413    0.181266
   21          1             0        0.010254    2.726918    0.740029
   22          1             0        0.088780    3.263035   -0.659082
   23          1             0       -0.378709   -1.544800   -0.620198
   24         16             0        1.610332    0.895033   -1.581140
   25         53             0        3.839650    1.605240   -1.617821
 ---------------------------------------------------------------------
                    Distance matrix (angstroms):
                    1          2          3          4          5
     1  C    0.000000
     2  H    1.099088   0.000000
     3  H    1.096027   1.768032   0.000000
     4  N    1.480270   2.072241   2.093491   0.000000
     5  H    2.096671   2.956451   2.429595   1.027749   0.000000
     6  P    2.988849   3.102353   3.100841   2.013923   2.444949
     7  O    4.013542   4.251432   4.317134   2.643300   2.738482
     8  O    3.306258   3.653185   2.886875   2.716907   2.778021
     9  C    1.502600   2.160536   2.162118   2.479895   2.748626
    10  H    2.216190   2.597071   3.118051   2.810797   3.142675
    11  C    2.515032   3.225387   2.667018   3.567153   3.580076
    12  H    3.509432   4.144949   3.755179   4.461134   4.414880
    13  H    2.773779   3.521249   2.467908   3.879060   3.811783
    14  O    4.111579   4.959161   4.017326   3.053594   2.187415
    15  H    4.234883   4.934406   4.309782   2.941681   2.269061
    16  H    3.855971   4.636122   3.555619   2.962927   2.284190
    17  O    4.088755   4.013623   4.960391   3.005475   3.504815
    18  H    4.084649   4.132484   4.793586   2.787139   3.149488
    19  H    4.044365   3.718179   4.893843   3.167238   3.882507
    20  O    3.696949   3.594940   2.888052   4.202459   4.616953
    21  H    3.413000   3.496529   2.637068   3.606050   3.910025
    22  H    3.635469   3.263238   3.069640   4.113452   4.715736
    23  H    2.105109   2.406867   2.976916   1.028589   1.670551
    24  S    3.538537   2.953983   3.802626   3.172061   4.026972
    25  I    5.826412   5.277056   5.939554   5.284168   5.974380
                    6          7          8          9         10
     6  P    0.000000
     7  O    1.549856   0.000000
     8  O    1.544499   2.641004   0.000000
     9  C    4.350472   5.114083   4.659228   0.000000
    10  H    4.743601   5.281390   5.337280   1.095697   0.000000
    11  C    5.355533   6.167344   5.344036   1.337340   2.102757
    12  H    6.342810   7.039603   6.391791   2.122688   2.444149
    13  H    5.415643   6.366673   5.097113   2.120976   3.085908
    14  O    3.198537   2.913683   2.896699   4.768597   5.228453
    15  H    2.769604   2.090746   2.866908   5.011224   5.332613
    16  H    2.757478   2.878687   2.066172   4.736437   5.345582
    17  O    3.320680   2.765974   4.784309   4.679051   4.266965
    18  H    2.670053   1.827565   4.101353   4.874344   4.658703
    19  H    3.214862   2.994354   4.739072   4.792971   4.438231
    20  O    3.622667   5.128858   2.805544   4.973942   5.855150
    21  H    2.849048   4.288447   1.842339   4.770511   5.625881
    22  H    3.417185   4.951402   3.003971   4.984763   5.741729
    23  H    2.463909   2.667838   3.537168   2.753778   2.668683
    24  S    2.060000   3.102093   3.107087   4.914003   5.166512
    25  I    3.596855   4.120487   4.352668   7.236555   7.477818
                   11         12         13         14         15
    11  C    0.000000
    12  H    1.090843   0.000000
    13  H    1.091880   1.862251   0.000000
    14  O    5.273110   6.046593   5.222345   0.000000
    15  H    5.724180   6.511239   5.793332   0.976343   0.000000
    16  H    5.220638   6.107597   5.021260   0.976920   1.489369
    17  O    5.968094   6.584080   6.594213   4.798215   4.107355
    18  H    6.108335   6.818896   6.601109   4.088363   3.307172
    19  H    6.120809   6.797796   6.705360   5.304511   4.631313
    20  O    5.357079   6.425249   4.832108   5.385843   5.560624
    21  H    5.243550   6.332332   4.774634   4.471930   4.624419
    22  H    5.556387   6.614799   5.194926   5.708667   5.734653
    23  H    3.992267   4.734762   4.525379   3.595920   3.283065
    24  S    6.035808   7.001103   6.179473   5.237911   4.783680
    25  I    8.331004   9.319274   8.386845   6.599846   5.995458
                   16         17         18         19         20
    16  H    0.000000
    17  O    5.033635   0.000000
    18  H    4.296221   0.988563   0.000000
    19  H    5.375980   0.969480   1.508354   0.000000
    20  O    4.519094   6.522940   6.138046   6.161308   0.000000
    21  H    3.586306   5.946035   5.457914   5.682891   0.983182
    22  H    4.900448   6.091524   5.778057   5.610462   0.967819
    23  H    3.701723   2.101629   2.123835   2.374115   5.058175
    24  S    4.770477   3.599173   3.349069   2.937548   3.672626
    25  I    6.077989   5.038909   4.621754   4.353716   4.921536
                   21         22         23         24         25
    21  H    0.000000
    22  H    1.500366   0.000000
    23  H    4.499898   4.830666   0.000000
    24  S    3.362123   2.961881   3.291273   0.000000
    25  I    4.634856   4.211471   5.358410   2.340000   0.000000
 Stoichiometry    C3H13INO5PS
 Framework group  C1[X(C3H13INO5PS)]
 Deg. of freedom    69
 Full point group                 C1
 Largest Abelian subgroup         C1      NOp   1
 Largest concise Abelian subgroup C1      NOp   1
                         Standard orientation:                         
 ---------------------------------------------------------------------
 Center     Atomic     Atomic              Coordinates (Angstroms)
 Number     Number      Type              X           Y           Z
 ---------------------------------------------------------------------
    1          6             0       -2.762706    0.777060   -0.823878
    2          1             0       -2.007319    1.131410   -1.539296
    3          1             0       -2.793149    1.497390    0.001636
    4          7             0       -2.247080   -0.502787   -0.287858
    5          1             0       -2.856538   -0.890937    0.443011
    6         15             0       -0.460989   -0.443695    0.640728
    7          8             0       -0.377038   -1.975431    0.861619
    8          8             0       -0.857990    0.423731    1.855405
    9          6             0       -4.107015    0.626009   -1.477960
   10          1             0       -4.166134   -0.095174   -2.300731
   11          6             0       -5.201464    1.310720   -1.128921
   12          1             0       -6.150599    1.174043   -1.648923
   13          1             0       -5.181634    2.033936   -0.311138
   14          8             0       -2.771668   -1.656016    2.490506
   15          1             0       -2.033559   -2.177538    2.121106
   16          1             0       -2.303911   -0.814881    2.658038
   17          8             0       -0.826552   -2.697636   -1.770294
   18          1             0       -0.588811   -2.681027   -0.810888
   19          1             0       -0.189782   -2.058814   -2.125710
   20          8             0       -0.708696    3.134647    1.148495
   21          1             0       -0.787237    2.238325    1.544834
   22          1             0       -0.118129    2.948050    0.404798
   23          1             0       -2.112344   -1.215739   -1.016927
   24         16             0        0.754184    0.386956   -0.800443
   25         53             0        2.993005    0.165613   -0.156791
 ---------------------------------------------------------------------
 Rotational constants (GHZ):      0.6085591      0.2058871      0.1963149
 Leave Link  202 at Sat Aug  2 18:43:15 2008, MaxMem=  536870912 cpu:       0.4
 (Enter /usr/local/Chem-Apps/g03_d01/g03/l301.exe)
 General basis read from cards:  (5D, 7F)
 Centers:   1  9 11  2  3  5 10 12 13 15 16 18 19 21 22 23  4  7  8 14
 Centers:  17 20  6 24
 aug-cc-pVDZ
 ****
 Centers:  25
 S 1 1.00
     Exponent=  6.8030000000D-01 Coefficients=  1.0000000000D+00
 S 1 1.00
     Exponent=  5.2080000000D-01 Coefficients=  1.0000000000D+00
 S 1 1.00
     Exponent=  1.1430000000D-01 Coefficients=  1.0000000000D+00
 P 1 1.00
     Exponent=  1.1250000000D+00 Coefficients=  1.0000000000D+00
 P 1 1.00
     Exponent=  3.5080000000D-01 Coefficients=  1.0000000000D+00
 P 1 1.00
     Exponent=  1.1660000000D-01 Coefficients=  1.0000000000D+00
 D 1 1.00
     Exponent=  3.9502000000D+00 Coefficients=  1.0000000000D+00
 D 1 1.00
     Exponent=  2.5742000000D+00 Coefficients=  1.0000000000D+00
 D 1 1.00
     Exponent=  1.3071000000D+00 Coefficients=  1.0000000000D+00
 D 1 1.00
     Exponent=  5.1160000000D-01 Coefficients=  1.0000000000D+00
 ****
 ===================================================================================================================================
 Pseudopotential Parameters 
 ===================================================================================================================================
  Center     Atomic      Valence      Angular      Power                                                       Coordinates
  Number     Number     Electrons     Momentum     of R      Exponent        Coefficient                X           Y           Z
 ===================================================================================================================================
    1          6                                                                                   -5.220758  1.468431 -1.556904
                                   No pseudopotential on this center.
    2          1                                                                                   -3.793284  2.138056 -2.908847
                                   No pseudopotential on this center.
    3          1                                                                                   -5.278286  2.829656  0.003091
                                   No pseudopotential on this center.
    4          7                                                                                   -4.246366 -0.950131 -0.543972
                                   No pseudopotential on this center.
    5          1                                                                                   -5.398075 -1.683627  0.837170
                                   No pseudopotential on this center.
    6         15                                                                                   -0.871143 -0.838462  1.210800
                                   No pseudopotential on this center.
    7          8                                                                                   -0.712498 -3.733023  1.628224
                                   No pseudopotential on this center.
    8          8                                                                                   -1.621366  0.800735  3.506207
                                   No pseudopotential on this center.
    9          6                                                                                   -7.761133  1.182985 -2.792940
                                   No pseudopotential on this center.
   10          1                                                                                   -7.872853 -0.179853 -4.347752
                                   No pseudopotential on this center.
   11          6                                                                                   -9.829343  2.476902 -2.133351
                                   No pseudopotential on this center.
   12          1                                                                                  -11.622947  2.218621 -3.116013
                                   No pseudopotential on this center.
   13          1                                                                                   -9.791868  3.843581 -0.587965
                                   No pseudopotential on this center.
   14          8                                                                                   -5.237693 -3.129418  4.706374
                                   No pseudopotential on this center.
   15          1                                                                                   -3.842870 -4.114950  4.008310
                                   No pseudopotential on this center.
   16          1                                                                                   -4.353761 -1.539903  5.022965
                                   No pseudopotential on this center.
   17          8                                                                                   -1.561956 -5.097794 -3.345371
                                   No pseudopotential on this center.
   18          1                                                                                   -1.112692 -5.066406 -1.532356
                                   No pseudopotential on this center.
   19          1                                                                                   -0.358635 -3.890594 -4.017010
                                   No pseudopotential on this center.
   20          8                                                                                   -1.339241  5.923624  2.170341
                                   No pseudopotential on this center.
   21          1                                                                                   -1.487662  4.229821  2.919314
                                   No pseudopotential on this center.
   22          1                                                                                   -0.223231  5.571008  0.764957
                                   No pseudopotential on this center.
   23          1                                                                                   -3.991753 -2.297413 -1.921714
                                   No pseudopotential on this center.
   24         16                                                                                    1.425201  0.731240 -1.512619
                                   No pseudopotential on this center.
   25         53           17                                                                       5.655959  0.312964 -0.296292
                                      F and up 
                                                     2        2.0065999       -2.60678697
                                                     2        5.4120002      -15.30154037
                                                     2       20.8878994      -73.32185364
                                                     1       63.8210983      -23.43061638
                                      S - F
                                                     2        1.5301000     -144.29801941
                                                     2        1.8566001      252.49822998
                                                     2        2.5843000     -200.15640259
                                                     2        3.7542000       85.98131561
                                                     1        1.1387000       32.24239349
                                                     0       12.4701004        6.45168209
                                      P - F
                                                     2        0.9111000       32.43734360
                                                     2        1.0657999     -101.57602692
                                                     2        1.3899000      169.25859070
                                                     2        1.7958000     -105.27653503
                                                     1        2.5479000       12.12060356
                                                     0        1.1725000        6.45733500
                                      D - F
                                                     2        0.8653000        3.41730189
                                                     2        0.8996000       -3.97894001
                                                     2        4.5872002      -37.31042862
                                                     2        5.5282001       77.44996643
                                                     1       22.2080002       18.01509857
                                                     0       19.1401005        6.86909294
 ===================================================================================================================================
 There are   410 symmetry adapted basis functions of A   symmetry.
 Integral buffers will be    131072 words long.
 Raffenetti 2 integral format.
 Two-electron integral symmetry is turned on.
   410 basis functions,   732 primitive gaussians,   436 cartesian basis functions
    63 alpha electrons       63 beta electrons
       nuclear repulsion energy      1156.5106349689 Hartrees.
 IExCor= 402 DFT=T Ex=B+HF Corr=LYP ExCW=0 ScaHFX=  0.200000
 ScaDFX=  0.800000  0.720000  1.000000  0.810000
 IRadAn=      5 IRanWt=     -1 IRanGd=            0 ICorTp=0
 NAtoms=   25 NActive=   25 NUniq=   25 SFac= 7.50D-01 NAtFMM=   80 NAOKFM=F Big=F
 Leave Link  301 at Sat Aug  2 18:43:15 2008, MaxMem=  536870912 cpu:       0.4
 (Enter /usr/local/Chem-Apps/g03_d01/g03/l302.exe)
 NPDir=0 NMtPBC=     1 NCelOv=     1 NCel=       1 NClECP=     1 NCelD=      1
         NCelK=      1 NCelE2=     1 NClLst=     1 CellRange=     0.0.
 One-electron integrals computed using PRISM.
   1 Symmetry operations used in ECPInt.
 ECPInt:  NShTT=   15931 NPrTT=   80121 LenC2=   15504 LenP2D=   52835.
 LDataN:  DoStor=F MaxTD1= 5 Len=  102
 LDataN:  DoStor=T MaxTD1= 5 Len=  102
 NBasis=   410 RedAO= T  NBF=   410
 NBsUse=   410 1.00D-06 NBFU=   410
 Precomputing XC quadrature grid using
 IXCGrd= 2 IRadAn=           5 IRanWt=          -1 IRanGd=           0.
 Defaulting to unpruned grid for atomic number  53.
 NRdTot=    2146 NPtTot=      604456 NUsed=      619579 NTot=      619611
 NSgBfM=   433   433   433   433.
 Leave Link  302 at Sat Aug  2 18:43:17 2008, MaxMem=  536870912 cpu:      23.4
 (Enter /usr/local/Chem-Apps/g03_d01/g03/l303.exe)
 DipDrv:  MaxL=1.
 Leave Link  303 at Sat Aug  2 18:43:17 2008, MaxMem=  536870912 cpu:       1.6
 (Enter /usr/local/Chem-Apps/g03_d01/g03/l401.exe)
 Harris functional with IExCor=  402 diagonalized for initial guess.
 ExpMin= 2.97D-02 ExpMax= 1.11D+05 ExpMxC= 3.24D+03 IAcc=3 IRadAn=         5 AccDes= 0.00D+00
 HarFok:  IExCor= 402 AccDes= 0.00D+00 IRadAn=         5 IDoV=1
 ScaDFX=  1.000000  1.000000  1.000000  1.000000
 Defaulting to unpruned grid for atomic number  53.
 Defaulting to unpruned grid for atomic number  53.
 Defaulting to unpruned grid for atomic number  53.
 Defaulting to unpruned grid for atomic number  53.
 Defaulting to unpruned grid for atomic number  53.
 Defaulting to unpruned grid for atomic number  53.
 Defaulting to unpruned grid for atomic number  53.
 Defaulting to unpruned grid for atomic number  53.
 Defaulting to unpruned grid for atomic number  53.
 Defaulting to unpruned grid for atomic number  53.
 Defaulting to unpruned grid for atomic number  53.
 Defaulting to unpruned grid for atomic number  53.
 Defaulting to unpruned grid for atomic number  53.
 Defaulting to unpruned grid for atomic number  53.
 Defaulting to unpruned grid for atomic number  53.
 Defaulting to unpruned grid for atomic number  53.
 Harris En=  1648.96981547671    
 Initial guess orbital symmetries:
       Occupied  (A) (A) (A) (A) (A) (A) (A) (A) (A) (A) (A) (A)
                 (A) (A) (A) (A) (A) (A) (A) (A) (A) (A) (A) (A)
                 (A) (A) (A) (A) (A) (A) (A) (A) (A) (A) (A) (A)
                 (A) (A) (A) (A) (A) (A) (A) (A) (A) (A) (A) (A)
                 (A) (A) (A) (A) (A) (A) (A) (A) (A) (A) (A) (A)
                 (A) (A) (A)
       Virtual   (A) (A) (A) (A) (A) (A) (A) (A) (A) (A) (A) (A)
                 (A) (A) (A) (A) (A) (A) (A) (A) (A) (A) (A) (A)
                 (A) (A) (A) (A) (A) (A) (A) (A) (A) (A) (A) (A)
                 (A) (A) (A) (A) (A) (A) (A) (A) (A) (A) (A) (A)
                 (A) (A) (A) (A) (A) (A) (A) (A) (A) (A) (A) (A)
                 (A) (A) (A) (A) (A) (A) (A) (A) (A) (A) (A) (A)
                 (A) (A) (A) (A) (A) (A) (A) (A) (A) (A) (A) (A)
                 (A) (A) (A) (A) (A) (A) (A) (A) (A) (A) (A) (A)
                 (A) (A) (A) (A) (A) (A) (A) (A) (A) (A) (A) (A)
                 (A) (A) (A) (A) (A) (A) (A) (A) (A) (A) (A) (A)
                 (A) (A) (A) (A) (A) (A) (A) (A) (A) (A) (A) (A)
                 (A) (A) (A) (A) (A) (A) (A) (A) (A) (A) (A) (A)
                 (A) (A) (A) (A) (A) (A) (A) (A) (A) (A) (A) (A)
                 (A) (A) (A) (A) (A) (A) (A) (A) (A) (A) (A) (A)
                 (A) (A) (A) (A) (A) (A) (A) (A) (A) (A) (A) (A)
                 (A) (A) (A) (A) (A) (A) (A) (A) (A) (A) (A) (A)
                 (A) (A) (A) (A) (A) (A) (A) (A) (A) (A) (A) (A)
                 (A) (A) (A) (A) (A) (A) (A) (A) (A) (A) (A) (A)
                 (A) (A) (A) (A) (A) (A) (A) (A) (A) (A) (A) (A)
                 (A) (A) (A) (A) (A) (A) (A) (A) (A) (A) (A) (A)
                 (A) (A) (A) (A) (A) (A) (A) (A) (A) (A) (A) (A)
                 (A) (A) (A) (A) (A) (A) (A) (A) (A) (A) (A) (A)
                 (A) (A) (A) (A) (A) (A) (A) (A) (A) (A) (A) (A)
                 (A) (A) (A) (A) (A) (A) (A) (A) (A) (A) (A) (A)
                 (A) (A) (A) (A) (A) (A) (A) (A) (A) (A) (A) (A)
                 (A) (A) (A) (A) (A) (A) (A) (A) (A) (A) (A) (A)
                 (A) (A) (A) (A) (A) (A) (A) (A) (A) (A) (A) (A)
                 (A) (A) (A) (A) (A) (A) (A) (A) (A) (A) (A) (A)
                 (A) (A) (A) (A) (A) (A) (A) (A) (A) (A) (A)
 The electronic state of the initial guess is 1-A.
 Leave Link  401 at Sat Aug  2 18:43:21 2008, MaxMem=  536870912 cpu:      59.2
 (Enter /usr/local/Chem-Apps/g03_d01/g03/l502.exe)
 Closed shell SCF:
 Requested convergence on RMS density matrix=1.00D-08 within 128 cycles.
 Requested convergence on MAX density matrix=1.00D-06.
 Requested convergence on             energy=1.00D-06.
 No special actions if energy rises.
 Using DIIS extrapolation, IDIIS=  1040.
 Integral symmetry usage will be decided dynamically.
       619578 words used for storage of precomputed grid.
 IEnd=   1312034 IEndB=   1312034 NGot= 536870912 MDV= 535766051
 LenX= 535766051
 Fock matrices will be formed incrementally for  20 cycles.

 Cycle   1  Pass 1  IDiag  1:
 Petite list used in FoFDir.
 MinBra= 0 MaxBra= 2 Meth= 1.
 IRaf=       0 NMat=   1 IRICut=       1 DoRegI=T DoRafI=F ISym2E= 1 JSym2E=1.
 Defaulting to unpruned grid for atomic number  53.
 Defaulting to unpruned grid for atomic number  53.
 Defaulting to unpruned grid for atomic number  53.
 Defaulting to unpruned grid for atomic number  53.
 Defaulting to unpruned grid for atomic number  53.
 Defaulting to unpruned grid for atomic number  53.
 Defaulting to unpruned grid for atomic number  53.
 Defaulting to unpruned grid for atomic number  53.
 Defaulting to unpruned grid for atomic number  53.
 Defaulting to unpruned grid for atomic number  53.
 Defaulting to unpruned grid for atomic number  53.
 Defaulting to unpruned grid for atomic number  53.
 Defaulting to unpruned grid for atomic number  53.
 Defaulting to unpruned grid for atomic number  53.
 Defaulting to unpruned grid for atomic number  53.
 Defaulting to unpruned grid for atomic number  53.
 E= -1388.98356604678    
 DIIS: error= 1.01D+00 at cycle   1 NSaved=   1.
 NSaved= 1 IEnMin= 1 EnMin= -1388.98356604678     IErMin= 1 ErrMin= 1.01D+00
 ErrMax= 1.01D+00 EMaxC= 1.00D-01 BMatC= 8.20D+01 BMatP= 8.20D+01
 IDIUse=3 WtCom= 0.00D+00 WtEn= 1.00D+00
 Coeff-Com:  0.100D+01
 Coeff-En:   0.100D+01
 Coeff:      0.100D+01
 Gap=     0.283 Goal=   None    Shift=    0.000
 GapD=    0.283 DampG=1.000 DampE=0.250 DampFc=0.2500 IDamp=-1.
 Damping current iteration by 2.50D-01
 RMSDP=2.33D-02 MaxDP=3.86D+00              OVMax= 9.10D-01

 Cycle   2  Pass 1  IDiag  1:
 RMSU=  4.42D-03    CP:  9.04D-01
 E= -1393.41435993260     Delta-E=       -4.430793885823 Rises=F Damp=T
 DIIS: error= 7.27D-01 at cycle   2 NSaved=   2.
 NSaved= 2 IEnMin= 2 EnMin= -1393.41435993260     IErMin= 2 ErrMin= 7.27D-01
 ErrMax= 7.27D-01 EMaxC= 1.00D-01 BMatC= 3.90D+01 BMatP= 8.20D+01
 IDIUse=3 WtCom= 0.00D+00 WtEn= 1.00D+00
 Coeff-Com: -0.210D+01 0.310D+01
 Coeff-En:   0.000D+00 0.100D+01
 Coeff:      0.000D+00 0.100D+01
 Gap=     0.004 Goal=   None    Shift=    0.000
 RMSDP=1.20D-02 MaxDP=1.95D+00 DE=-4.43D+00 OVMax= 7.38D-01

 Cycle   3  Pass 1  IDiag  1:
 RMSU=  6.69D-03    CP:  6.78D-01  1.99D+00
 E= -1403.25092571513     Delta-E=       -9.836565782532 Rises=F Damp=F
 DIIS: error= 2.99D-01 at cycle   3 NSaved=   3.
 NSaved= 3 IEnMin= 3 EnMin= -1403.25092571513     IErMin= 3 ErrMin= 2.99D-01
 ErrMax= 2.99D-01 EMaxC= 1.00D-01 BMatC= 2.55D+00 BMatP= 3.90D+01
 IDIUse=3 WtCom= 0.00D+00 WtEn= 1.00D+00
 Coeff-Com: -0.325D+00 0.612D+00 0.713D+00
 Coeff-En:   0.000D+00 0.000D+00 0.100D+01
 Coeff:      0.000D+00 0.000D+00 0.100D+01
 Gap=     0.143 Goal=   None    Shift=    0.000
 RMSDP=1.92D-02 MaxDP=4.23D+00 DE=-9.84D+00 OVMax= 7.19D-01

 Cycle   4  Pass 1  IDiag  1:
 RMSU=  1.26D-02    CP:  1.01D+00  1.07D+00  3.09D-01
 E= -1401.68028585770     Delta-E=        1.570639857431 Rises=F Damp=F
 DIIS: error= 1.33D-01 at cycle   4 NSaved=   4.
 NSaved= 4 IEnMin= 3 EnMin= -1403.25092571513     IErMin= 4 ErrMin= 1.33D-01
 ErrMax= 1.33D-01 EMaxC= 1.00D-01 BMatC= 2.14D+00 BMatP= 2.55D+00
 IDIUse=3 WtCom= 0.00D+00 WtEn= 1.00D+00
 Coeff-Com:  0.303D+00-0.370D+00 0.600D+00 0.467D+00
 Coeff-En:   0.000D+00 0.000D+00 0.740D+00 0.260D+00
 Coeff:      0.000D+00 0.000D+00 0.740D+00 0.260D+00
 Gap=     0.031 Goal=   None    Shift=    0.000
 RMSDP=9.82D-03 MaxDP=1.80D+00 DE= 1.57D+00 OVMax= 4.83D-01

 Cycle   5  Pass 1  IDiag  1:
 RMSU=  2.49D-03    CP:  8.65D-01  9.85D-01  8.37D-01  4.66D-01
 E= -1403.95539469863     Delta-E=       -2.275108840930 Rises=F Damp=F
 DIIS: error= 6.94D-02 at cycle   5 NSaved=   5.
 NSaved= 5 IEnMin= 5 EnMin= -1403.95539469863     IErMin= 5 ErrMin= 6.94D-02
 ErrMax= 6.94D-02 EMaxC= 1.00D-01 BMatC= 3.81D-01 BMatP= 2.14D+00
 IDIUse=3 WtCom= 3.06D-01 WtEn= 6.94D-01
 Coeff-Com: -0.227D+00 0.318D+00 0.171D+00 0.141D+00 0.597D+00
 Coeff-En:   0.000D+00 0.000D+00 0.000D+00 0.807D-01 0.919D+00
 Coeff:     -0.694D-01 0.973D-01 0.523D-01 0.992D-01 0.821D+00
 Gap=     0.134 Goal=   None    Shift=    0.000
 RMSDP=6.19D-03 MaxDP=1.25D+00 DE=-2.28D+00 OVMax= 2.87D-01

 Cycle   6  Pass 1  IDiag  1:
 RMSU=  2.17D-03    CP:  7.69D-01  1.65D+00  8.14D-01  2.74D-01  1.51D-01
 E= -1403.93677602245     Delta-E=        0.018618676178 Rises=F Damp=F
 DIIS: error= 2.32D-02 at cycle   6 NSaved=   6.
 NSaved= 6 IEnMin= 5 EnMin= -1403.95539469863     IErMin= 6 ErrMin= 2.32D-02
 ErrMax= 2.32D-02 EMaxC= 1.00D-01 BMatC= 3.38D-01 BMatP= 3.81D-01
 IDIUse=3 WtCom= 7.68D-01 WtEn= 2.32D-01
 Coeff-Com: -0.105D+00 0.142D+00 0.827D-01 0.390D-01 0.524D+00 0.317D+00
 Coeff-En:   0.000D+00 0.000D+00 0.000D+00 0.000D+00 0.515D+00 0.485D+00
 Coeff:     -0.805D-01 0.109D+00 0.635D-01 0.300D-01 0.522D+00 0.356D+00
 Gap=     0.154 Goal=   None    Shift=    0.000
 RMSDP=2.60D-03 MaxDP=4.48D-01 DE= 1.86D-02 OVMax= 1.24D-01

 Cycle   7  Pass 1  IDiag  1:
 RMSU=  1.37D-03    CP:  8.05D-01  1.44D+00  8.21D-01  3.49D-01  3.85D-01
                    CP:  6.28D-01
 E= -1404.19100113033     Delta-E=       -0.254225107879 Rises=F Damp=F
 DIIS: error= 2.54D-03 at cycle   7 NSaved=   7.
 NSaved= 7 IEnMin= 7 EnMin= -1404.19100113033     IErMin= 7 ErrMin= 2.54D-03
 ErrMax= 2.54D-03 EMaxC= 1.00D-01 BMatC= 1.26D-02 BMatP= 3.38D-01
 IDIUse=3 WtCom= 9.75D-01 WtEn= 2.54D-02
 Coeff-Com: -0.507D-01 0.686D-01 0.185D-01 0.237D-02 0.221D+00 0.212D+00
 Coeff-Com:  0.528D+00
 Coeff-En:   0.000D+00 0.000D+00 0.000D+00 0.000D+00 0.000D+00 0.000D+00
 Coeff-En:   0.100D+01
 Coeff:     -0.494D-01 0.669D-01 0.180D-01 0.231D-02 0.215D+00 0.207D+00
 Coeff:      0.540D+00
 Gap=     0.130 Goal=   None    Shift=    0.000
 RMSDP=5.51D-04 MaxDP=3.44D-02 DE=-2.54D-01 OVMax= 3.05D-02

 Cycle   8  Pass 1  IDiag  1:
 RMSU=  4.51D-04    CP:  8.05D-01  1.44D+00  8.03D-01  3.56D-01  4.11D-01
                    CP:  6.94D-01  8.32D-01
 E= -1404.20097504675     Delta-E=       -0.009973916419 Rises=F Damp=F
 DIIS: error= 1.30D-03 at cycle   8 NSaved=   8.
 NSaved= 8 IEnMin= 8 EnMin= -1404.20097504675     IErMin= 8 ErrMin= 1.30D-03
 ErrMax= 1.30D-03 EMaxC= 1.00D-01 BMatC= 1.93D-03 BMatP= 1.26D-02
 IDIUse=3 WtCom= 9.87D-01 WtEn= 1.30D-02
 Coeff-Com: -0.303D-01 0.420D-01-0.327D-02-0.371D-02 0.350D-01 0.475D-01
 Coeff-Com:  0.314D+00 0.599D+00
 Coeff-En:   0.000D+00 0.000D+00 0.000D+00 0.000D+00 0.000D+00 0.000D+00
 Coeff-En:   0.100D+00 0.900D+00
 Coeff:     -0.299D-01 0.414D-01-0.323D-02-0.367D-02 0.346D-01 0.469D-01
 Coeff:      0.311D+00 0.603D+00
 Gap=     0.127 Goal=   None    Shift=    0.000
 RMSDP=2.01D-04 MaxDP=2.76D-02 DE=-9.97D-03 OVMax= 8.95D-03

 Cycle   9  Pass 1  IDiag  1:
 RMSU=  1.13D-04    CP:  8.03D-01  1.45D+00  8.05D-01  3.50D-01  3.96D-01
                    CP:  7.00D-01  8.60D-01  8.29D-01
 E= -1404.20239227610     Delta-E=       -0.001417229349 Rises=F Damp=F
 DIIS: error= 7.79D-04 at cycle   9 NSaved=   9.
 NSaved= 9 IEnMin= 9 EnMin= -1404.20239227610     IErMin= 9 ErrMin= 7.79D-04
 ErrMax= 7.79D-04 EMaxC= 1.00D-01 BMatC= 2.25D-04 BMatP= 1.93D-03
 IDIUse=3 WtCom= 9.92D-01 WtEn= 7.79D-03
 Coeff-Com: -0.159D-01 0.220D-01-0.189D-02-0.784D-03 0.337D-02 0.638D-02
 Coeff-Com:  0.134D+00 0.352D+00 0.501D+00
 Coeff-En:   0.000D+00 0.000D+00 0.000D+00 0.000D+00 0.000D+00 0.000D+00
 Coeff-En:   0.000D+00 0.000D+00 0.100D+01
 Coeff:     -0.158D-01 0.219D-01-0.188D-02-0.778D-03 0.334D-02 0.633D-02
 Coeff:      0.133D+00 0.349D+00 0.505D+00
 Gap=     0.128 Goal=   None    Shift=    0.000
 RMSDP=7.53D-05 MaxDP=1.26D-02 DE=-1.42D-03 OVMax= 2.94D-03

 Cycle  10  Pass 1  IDiag  1:
 RMSU=  4.42D-05    CP:  8.02D-01  1.46D+00  8.06D-01  3.48D-01  3.88D-01
                    CP:  7.03D-01  8.59D-01  8.05D-01  8.30D-01
 E= -1404.20255568792     Delta-E=       -0.000163411816 Rises=F Damp=F
 DIIS: error= 3.36D-04 at cycle  10 NSaved=  10.
 NSaved=10 IEnMin=10 EnMin= -1404.20255568792     IErMin=10 ErrMin= 3.36D-04
 ErrMax= 3.36D-04 EMaxC= 1.00D-01 BMatC= 2.27D-05 BMatP= 2.25D-04
 IDIUse=3 WtCom= 9.97D-01 WtEn= 3.36D-03
 Coeff-Com: -0.684D-02 0.939D-02-0.287D-03 0.871D-03-0.182D-02-0.353D-02
 Coeff-Com:  0.285D-01 0.983D-01 0.240D+00 0.636D+00
 Coeff-En:   0.000D+00 0.000D+00 0.000D+00 0.000D+00 0.000D+00 0.000D+00
 Coeff-En:   0.000D+00 0.000D+00 0.000D+00 0.100D+01
 Coeff:     -0.682D-02 0.936D-02-0.286D-03 0.868D-03-0.182D-02-0.352D-02
 Coeff:      0.284D-01 0.980D-01 0.239D+00 0.637D+00
 Gap=     0.128 Goal=   None    Shift=    0.000
 RMSDP=2.60D-05 MaxDP=3.07D-03 DE=-1.63D-04 OVMax= 7.10D-04

 Cycle  11  Pass 1  IDiag  1:
 RMSU=  1.50D-05    CP:  8.02D-01  1.46D+00  8.05D-01  3.48D-01  3.89D-01
                    CP:  7.03D-01  8.63D-01  8.36D-01  8.88D-01  8.80D-01
 E= -1404.20257027996     Delta-E=       -0.000014592046 Rises=F Damp=F
 DIIS: error= 1.01D-04 at cycle  11 NSaved=  11.
 NSaved=11 IEnMin=11 EnMin= -1404.20257027996     IErMin=11 ErrMin= 1.01D-04
 ErrMax= 1.01D-04 EMaxC= 1.00D-01 BMatC= 5.00D-06 BMatP= 2.27D-05
 IDIUse=3 WtCom= 9.99D-01 WtEn= 1.01D-03
 Coeff-Com: -0.217D-02 0.294D-02-0.250D-03 0.549D-03-0.212D-02-0.167D-02
 Coeff-Com: -0.153D-03 0.103D-01 0.490D-01 0.265D+00 0.678D+00
 Coeff-En:   0.000D+00 0.000D+00 0.000D+00 0.000D+00 0.000D+00 0.000D+00
 Coeff-En:   0.000D+00 0.000D+00 0.000D+00 0.000D+00 0.100D+01
 Coeff:     -0.217D-02 0.294D-02-0.249D-03 0.549D-03-0.212D-02-0.167D-02
 Coeff:     -0.153D-03 0.103D-01 0.489D-01 0.265D+00 0.679D+00
 Gap=     0.128 Goal=   None    Shift=    0.000
 RMSDP=2.35D-05 MaxDP=1.83D-03 DE=-1.46D-05 OVMax= 5.26D-04

 Cycle  12  Pass 1  IDiag  1:
 RMSU=  8.16D-06    CP:  8.02D-01  1.46D+00  8.05D-01  3.48D-01  3.88D-01
                    CP:  7.07D-01  8.74D-01  8.40D-01  8.92D-01  8.42D-01
                    CP:  6.06D-01
 E= -1404.20257445753     Delta-E=       -0.000004177567 Rises=F Damp=F
 DIIS: error= 6.11D-05 at cycle  12 NSaved=  12.
 NSaved=12 IEnMin=12 EnMin= -1404.20257445753     IErMin=12 ErrMin= 6.11D-05
 ErrMax= 6.11D-05 EMaxC= 1.00D-01 BMatC= 1.20D-06 BMatP= 5.00D-06
 IDIUse=1 WtCom= 1.00D+00 WtEn= 0.00D+00
 Coeff-Com:  0.118D-04-0.313D-04-0.151D-03 0.172D-03-0.121D-02 0.249D-03
 Coeff-Com: -0.470D-02-0.939D-02-0.254D-01-0.362D-01 0.340D+00 0.737D+00
 Coeff:      0.118D-04-0.313D-04-0.151D-03 0.172D-03-0.121D-02 0.249D-03
 Coeff:     -0.470D-02-0.939D-02-0.254D-01-0.362D-01 0.340D+00 0.737D+00
 Gap=     0.128 Goal=   None    Shift=    0.000
 RMSDP=7.44D-06 MaxDP=1.15D-03 DE=-4.18D-06 OVMax= 2.08D-04

 Cycle  13  Pass 1  IDiag  1:
 RMSU=  3.04D-06    CP:  8.02D-01  1.46D+00  8.04D-01  3.48D-01  3.87D-01
                    CP:  7.08D-01  8.75D-01  8.42D-01  9.07D-01  8.81D-01
                    CP:  6.90D-01  9.55D-01
 E= -1404.20257549959     Delta-E=       -0.000001042063 Rises=F Damp=F
 DIIS: error= 5.33D-06 at cycle  13 NSaved=  13.
 NSaved=13 IEnMin=13 EnMin= -1404.20257549959     IErMin=13 ErrMin= 5.33D-06
 ErrMax= 5.33D-06 EMaxC= 1.00D-01 BMatC= 6.15D-08 BMatP= 1.20D-06
 IDIUse=1 WtCom= 1.00D+00 WtEn= 0.00D+00
 Coeff-Com:  0.217D-03-0.299D-03-0.517D-04 0.333D-04-0.469D-03 0.340D-03
 Coeff-Com: -0.180D-02-0.350D-02-0.136D-01-0.393D-01 0.798D-01 0.334D+00
 Coeff-Com:  0.645D+00
 Coeff:      0.217D-03-0.299D-03-0.517D-04 0.333D-04-0.469D-03 0.340D-03
 Coeff:     -0.180D-02-0.350D-02-0.136D-01-0.393D-01 0.798D-01 0.334D+00
 Coeff:      0.645D+00
 Gap=     0.128 Goal=   None    Shift=    0.000
 RMSDP=2.22D-06 MaxDP=3.94D-04 DE=-1.04D-06 OVMax= 4.73D-05

 Cycle  14  Pass 1  IDiag  1:
 RMSU=  7.80D-07    CP:  8.02D-01  1.46D+00  8.04D-01  3.48D-01  3.87D-01
                    CP:  7.08D-01  8.74D-01  8.44D-01  9.08D-01  8.82D-01
                    CP:  7.37D-01  9.61D-01  7.10D-01
 E= -1404.20257555319     Delta-E=       -0.000000053592 Rises=F Damp=F
 DIIS: error= 6.47D-06 at cycle  14 NSaved=  14.
 NSaved=14 IEnMin=14 EnMin= -1404.20257555319     IErMin=13 ErrMin= 5.33D-06
 ErrMax= 6.47D-06 EMaxC= 1.00D-01 BMatC= 7.13D-09 BMatP= 6.15D-08
 IDIUse=1 WtCom= 1.00D+00 WtEn= 0.00D+00
 Coeff-Com:  0.103D-03-0.141D-03-0.267D-04 0.591D-05-0.195D-03 0.180D-03
 Coeff-Com: -0.523D-03-0.835D-03-0.436D-02-0.134D-01 0.291D-01 0.133D+00
 Coeff-Com:  0.322D+00 0.535D+00
 Coeff:      0.103D-03-0.141D-03-0.267D-04 0.591D-05-0.195D-03 0.180D-03
 Coeff:     -0.523D-03-0.835D-03-0.436D-02-0.134D-01 0.291D-01 0.133D+00
 Coeff:      0.322D+00 0.535D+00
 Gap=     0.128 Goal=   None    Shift=    0.000
 RMSDP=6.42D-07 MaxDP=8.53D-05 DE=-5.36D-08 OVMax= 1.86D-05

 Cycle  15  Pass 1  IDiag  1:
 RMSU=  3.05D-07    CP:  8.02D-01  1.46D+00  8.04D-01  3.48D-01  3.87D-01
                    CP:  7.08D-01  8.74D-01  8.43D-01  9.07D-01  8.79D-01
                    CP:  7.23D-01  9.80D-01  7.19D-01  7.94D-01
 E= -1404.20257555842     Delta-E=       -0.000000005237 Rises=F Damp=F
 DIIS: error= 2.20D-06 at cycle  15 NSaved=  15.
 NSaved=15 IEnMin=15 EnMin= -1404.20257555842     IErMin=15 ErrMin= 2.20D-06
 ErrMax= 2.20D-06 EMaxC= 1.00D-01 BMatC= 9.82D-10 BMatP= 7.13D-09
 IDIUse=1 WtCom= 1.00D+00 WtEn= 0.00D+00
 Coeff-Com:  0.384D-04-0.529D-04-0.896D-05 0.164D-05-0.657D-04 0.619D-04
 Coeff-Com: -0.107D-03-0.548D-04-0.682D-03-0.198D-02 0.104D-01 0.408D-01
 Coeff-Com:  0.109D+00 0.278D+00 0.565D+00
 Coeff:      0.384D-04-0.529D-04-0.896D-05 0.164D-05-0.657D-04 0.619D-04
 Coeff:     -0.107D-03-0.548D-04-0.682D-03-0.198D-02 0.104D-01 0.408D-01
 Coeff:      0.109D+00 0.278D+00 0.565D+00
 Gap=     0.128 Goal=   None    Shift=    0.000
 RMSDP=2.53D-07 MaxDP=1.68D-05 DE=-5.24D-09 OVMax= 7.58D-06

 Cycle  16  Pass 1  IDiag  1:
 RMSU=  9.05D-08    CP:  8.02D-01  1.46D+00  8.04D-01  3.48D-01  3.87D-01
                    CP:  7.08D-01  8.74D-01  8.43D-01  9.07D-01  8.80D-01
                    CP:  7.22D-01  9.73D-01  7.29D-01  8.08D-01  8.13D-01
 E= -1404.20257555926     Delta-E=       -0.000000000842 Rises=F Damp=F
 DIIS: error= 9.74D-07 at cycle  16 NSaved=  16.
 NSaved=16 IEnMin=16 EnMin= -1404.20257555926     IErMin=16 ErrMin= 9.74D-07
 ErrMax= 9.74D-07 EMaxC= 1.00D-01 BMatC= 1.27D-10 BMatP= 9.82D-10
 IDIUse=1 WtCom= 1.00D+00 WtEn= 0.00D+00
 Coeff-Com:  0.624D-05-0.872D-05-0.689D-06 0.420D-06-0.709D-05 0.215D-05
 Coeff-Com:  0.137D-04 0.832D-04 0.360D-03 0.141D-02 0.204D-02 0.167D-02
 Coeff-Com:  0.545D-02 0.341D-01 0.210D+00 0.745D+00
 Coeff:      0.624D-05-0.872D-05-0.689D-06 0.420D-06-0.709D-05 0.215D-05
 Coeff:      0.137D-04 0.832D-04 0.360D-03 0.141D-02 0.204D-02 0.167D-02
 Coeff:      0.545D-02 0.341D-01 0.210D+00 0.745D+00
 Gap=     0.128 Goal=   None    Shift=    0.000
 RMSDP=1.09D-07 MaxDP=1.20D-05 DE=-8.42D-10 OVMax= 3.40D-06

 Cycle  17  Pass 1  IDiag  1:
 RMSU=  2.80D-08    CP:  8.02D-01  1.46D+00  8.04D-01  3.48D-01  3.87D-01
                    CP:  7.08D-01  8.74D-01  8.43D-01  9.07D-01  8.80D-01
                    CP:  7.22D-01  9.70D-01  7.25D-01  8.05D-01  8.59D-01
                    CP:  8.55D-01
 E= -1404.20257555938     Delta-E=       -0.000000000116 Rises=F Damp=F
 DIIS: error= 1.45D-07 at cycle  17 NSaved=  17.
 NSaved=17 IEnMin=17 EnMin= -1404.20257555938     IErMin=17 ErrMin= 1.45D-07
 ErrMax= 1.45D-07 EMaxC= 1.00D-01 BMatC= 9.79D-12 BMatP= 1.27D-10
 IDIUse=1 WtCom= 1.00D+00 WtEn= 0.00D+00
 Coeff-Com:  0.100D-06-0.214D-06 0.362D-06 0.161D-06 0.171D-05-0.448D-05
 Coeff-Com:  0.178D-04 0.546D-04 0.284D-03 0.106D-02 0.379D-03-0.263D-02
 Coeff-Com: -0.720D-02-0.838D-02 0.692D-01 0.445D+00 0.502D+00
 Coeff:      0.100D-06-0.214D-06 0.362D-06 0.161D-06 0.171D-05-0.448D-05
 Coeff:      0.178D-04 0.546D-04 0.284D-03 0.106D-02 0.379D-03-0.263D-02
 Coeff:     -0.720D-02-0.838D-02 0.692D-01 0.445D+00 0.502D+00
 Gap=     0.128 Goal=   None    Shift=    0.000
 RMSDP=2.23D-08 MaxDP=2.07D-06 DE=-1.16D-10 OVMax= 1.39D-06

 Cycle  18  Pass 1  IDiag  1:
 RMSU=  1.05D-08    CP:  8.02D-01  1.46D+00  8.04D-01  3.48D-01  3.87D-01
                    CP:  7.08D-01  8.74D-01  8.43D-01  9.07D-01  8.80D-01
                    CP:  7.22D-01  9.70D-01  7.24D-01  8.08D-01  8.49D-01
                    CP:  8.94D-01  9.31D-01
 E= -1404.20257555941     Delta-E=       -0.000000000033 Rises=F Damp=F
 DIIS: error= 2.13D-08 at cycle  18 NSaved=  18.
 NSaved=18 IEnMin=18 EnMin= -1404.20257555941     IErMin=18 ErrMin= 2.13D-08
 ErrMax= 2.13D-08 EMaxC= 1.00D-01 BMatC= 7.12D-13 BMatP= 9.79D-12
 IDIUse=1 WtCom= 1.00D+00 WtEn= 0.00D+00
 Coeff-Com: -0.184D-06 0.243D-06 0.168D-06 0.246D-07 0.943D-06-0.166D-05
 Coeff-Com:  0.270D-05 0.536D-05 0.524D-04 0.208D-03-0.249D-04-0.926D-03
 Coeff-Com: -0.303D-02-0.755D-02 0.248D-02 0.966D-01 0.256D+00 0.656D+00
 Coeff:     -0.184D-06 0.243D-06 0.168D-06 0.246D-07 0.943D-06-0.166D-05
 Coeff:      0.270D-05 0.536D-05 0.524D-04 0.208D-03-0.249D-04-0.926D-03
 Coeff:     -0.303D-02-0.755D-02 0.248D-02 0.966D-01 0.256D+00 0.656D+00
 Gap=     0.128 Goal=   None    Shift=    0.000
 RMSDP=4.60D-09 MaxDP=2.04D-07 DE=-3.32D-11 OVMax= 3.09D-07

 SCF Done:  E(RB+HF-LYP) =  -1404.20257556     A.U. after   18 cycles
             Convg  =    0.4604D-08             -V/T =  2.0326
             S**2   =   0.0000
 KE= 1.359912354750D+03 PE=-5.632211792483D+03 EE= 1.711586227205D+03
 Leave Link  502 at Sat Aug  2 18:48:11 2008, MaxMem=  536870912 cpu:    4532.0
 (Enter /usr/local/Chem-Apps/g03_d01/g03/l601.exe)
 Copying SCF densities to generalized density rwf, ISCF=0 IROHF=0.

 **********************************************************************

            Population analysis using the SCF density.

 **********************************************************************

 Orbital symmetries:
       Occupied  (A) (A) (A) (A) (A) (A) (A) (A) (A) (A) (A) (A)
                 (A) (A) (A) (A) (A) (A) (A) (A) (A) (A) (A) (A)
                 (A) (A) (A) (A) (A) (A) (A) (A) (A) (A) (A) (A)
                 (A) (A) (A) (A) (A) (A) (A) (A) (A) (A) (A) (A)
                 (A) (A) (A) (A) (A) (A) (A) (A) (A) (A) (A) (A)
                 (A) (A) (A)
       Virtual   (A) (A) (A) (A) (A) (A) (A) (A) (A) (A) (A) (A)
                 (A) (A) (A) (A) (A) (A) (A) (A) (A) (A) (A) (A)
                 (A) (A) (A) (A) (A) (A) (A) (A) (A) (A) (A) (A)
                 (A) (A) (A) (A) (A) (A) (A) (A) (A) (A) (A) (A)
                 (A) (A) (A) (A) (A) (A) (A) (A) (A) (A) (A) (A)
                 (A) (A) (A) (A) (A) (A) (A) (A) (A) (A) (A) (A)
                 (A) (A) (A) (A) (A) (A) (A) (A) (A) (A) (A) (A)
                 (A) (A) (A) (A) (A) (A) (A) (A) (A) (A) (A) (A)
                 (A) (A) (A) (A) (A) (A) (A) (A) (A) (A) (A) (A)
                 (A) (A) (A) (A) (A) (A) (A) (A) (A) (A) (A) (A)
                 (A) (A) (A) (A) (A) (A) (A) (A) (A) (A) (A) (A)
                 (A) (A) (A) (A) (A) (A) (A) (A) (A) (A) (A) (A)
                 (A) (A) (A) (A) (A) (A) (A) (A) (A) (A) (A) (A)
                 (A) (A) (A) (A) (A) (A) (A) (A) (A) (A) (A) (A)
                 (A) (A) (A) (A) (A) (A) (A) (A) (A) (A) (A) (A)
                 (A) (A) (A) (A) (A) (A) (A) (A) (A) (A) (A) (A)
                 (A) (A) (A) (A) (A) (A) (A) (A) (A) (A) (A) (A)
                 (A) (A) (A) (A) (A) (A) (A) (A) (A) (A) (A) (A)
                 (A) (A) (A) (A) (A) (A) (A) (A) (A) (A) (A) (A)
                 (A) (A) (A) (A) (A) (A) (A) (A) (A) (A) (A) (A)
                 (A) (A) (A) (A) (A) (A) (A) (A) (A) (A) (A) (A)
                 (A) (A) (A) (A) (A) (A) (A) (A) (A) (A) (A) (A)
                 (A) (A) (A) (A) (A) (A) (A) (A) (A) (A) (A) (A)
                 (A) (A) (A) (A) (A) (A) (A) (A) (A) (A) (A) (A)
                 (A) (A) (A) (A) (A) (A) (A) (A) (A) (A) (A) (A)
                 (A) (A) (A) (A) (A) (A) (A) (A) (A) (A) (A) (A)
                 (A) (A) (A) (A) (A) (A) (A) (A) (A) (A) (A) (A)
                 (A) (A) (A) (A) (A) (A) (A) (A) (A) (A) (A) (A)
                 (A) (A) (A) (A) (A) (A) (A) (A) (A) (A) (A)
 The electronic state is 1-A.
 Alpha  occ. eigenvalues --  -88.96435 -77.26556 -19.16245 -19.15113 -19.14919
 Alpha  occ. eigenvalues --  -19.14218 -19.13098 -14.43892 -10.27142 -10.23248
 Alpha  occ. eigenvalues --  -10.22285  -8.02656  -6.71440  -5.99118  -5.98697
 Alpha  occ. eigenvalues --   -5.97982  -4.87878  -4.87678  -4.87484  -2.21076
 Alpha  occ. eigenvalues --   -2.20532  -2.20415  -2.18916  -2.18915  -1.04048
 Alpha  occ. eigenvalues --   -1.02175  -1.00187  -0.99266  -0.98320  -0.96933
 Alpha  occ. eigenvalues --   -0.84155  -0.82369  -0.72799  -0.72316  -0.61382
 Alpha  occ. eigenvalues --   -0.59532  -0.58230  -0.53493  -0.52771  -0.50970
 Alpha  occ. eigenvalues --   -0.50911  -0.50528  -0.48404  -0.46521  -0.45311
 Alpha  occ. eigenvalues --   -0.43499  -0.42460  -0.41784  -0.41080  -0.39967
 Alpha  occ. eigenvalues --   -0.38987  -0.38686  -0.36410  -0.34216  -0.33836
 Alpha  occ. eigenvalues --   -0.33059  -0.32484  -0.31190  -0.31056  -0.30586
 Alpha  occ. eigenvalues --   -0.30369  -0.29578  -0.28001
 Alpha virt. eigenvalues --   -0.15240  -0.06078  -0.04649  -0.03177  -0.01878
 Alpha virt. eigenvalues --   -0.00675  -0.00239   0.00224   0.00984   0.01592
 Alpha virt. eigenvalues --    0.02741   0.03340   0.03503   0.03954   0.04350
 Alpha virt. eigenvalues --    0.04994   0.05191   0.06470   0.06529   0.06769
 Alpha virt. eigenvalues --    0.07404   0.07479   0.07845   0.08010   0.08646
 Alpha virt. eigenvalues --    0.08782   0.09206   0.09889   0.10537   0.10757
 Alpha virt. eigenvalues --    0.10940   0.11758   0.12111   0.12298   0.12622
 Alpha virt. eigenvalues --    0.13202   0.13689   0.14220   0.14679   0.14991
 Alpha virt. eigenvalues --    0.15678   0.15947   0.16517   0.16888   0.17040
 Alpha virt. eigenvalues --    0.17690   0.17809   0.18563   0.18808   0.19869
 Alpha virt. eigenvalues --    0.20358   0.20463   0.20782   0.21035   0.21378
 Alpha virt. eigenvalues --    0.21764   0.22112   0.22343   0.22962   0.23219
 Alpha virt. eigenvalues --    0.23402   0.24168   0.24610   0.25188   0.25295
 Alpha virt. eigenvalues --    0.25814   0.25898   0.26287   0.27022   0.27515
 Alpha virt. eigenvalues --    0.28027   0.28760   0.29225   0.29570   0.29926
 Alpha virt. eigenvalues --    0.30050   0.30848   0.31897   0.32259   0.32679
 Alpha virt. eigenvalues --    0.33575   0.34503   0.34818   0.35332   0.36021
 Alpha virt. eigenvalues --    0.36440   0.36653   0.36966   0.38383   0.38924
 Alpha virt. eigenvalues --    0.39293   0.39647   0.40300   0.41157   0.42216
 Alpha virt. eigenvalues --    0.42804   0.43679   0.43867   0.44544   0.44816
 Alpha virt. eigenvalues --    0.45547   0.46387   0.46749   0.47558   0.48677
 Alpha virt. eigenvalues --    0.49094   0.49428   0.49859   0.50435   0.51292
 Alpha virt. eigenvalues --    0.51578   0.52445   0.52716   0.53329   0.53896
 Alpha virt. eigenvalues --    0.54497   0.54853   0.55664   0.56058   0.56453
 Alpha virt. eigenvalues --    0.56931   0.57369   0.58182   0.58647   0.59401
 Alpha virt. eigenvalues --    0.60256   0.60692   0.61186   0.61550   0.62434
 Alpha virt. eigenvalues --    0.62715   0.63529   0.64028   0.64831   0.65951
 Alpha virt. eigenvalues --    0.65975   0.67347   0.67574   0.68158   0.68368
 Alpha virt. eigenvalues --    0.69967   0.70556   0.70821   0.71046   0.71797
 Alpha virt. eigenvalues --    0.72727   0.73104   0.73598   0.75188   0.76458
 Alpha virt. eigenvalues --    0.76635   0.77684   0.78013   0.79460   0.80090
 Alpha virt. eigenvalues --    0.80731   0.81174   0.82642   0.84352   0.85190
 Alpha virt. eigenvalues --    0.85711   0.86452   0.88230   0.88504   0.88803
 Alpha virt. eigenvalues --    0.89979   0.91426   0.92463   0.94008   0.94569
 Alpha virt. eigenvalues --    0.95462   0.96733   0.97425   0.98289   0.98957
 Alpha virt. eigenvalues --    0.99471   1.00326   1.01871   1.02351   1.03387
 Alpha virt. eigenvalues --    1.03786   1.04371   1.05623   1.06003   1.06510
 Alpha virt. eigenvalues --    1.08005   1.08228   1.08854   1.10232   1.10377
 Alpha virt. eigenvalues --    1.11363   1.12821   1.14073   1.14982   1.15759
 Alpha virt. eigenvalues --    1.16852   1.17276   1.18403   1.20446   1.21103
 Alpha virt. eigenvalues --    1.21634   1.22234   1.24745   1.26021   1.26197
 Alpha virt. eigenvalues --    1.27129   1.28382   1.30128   1.31083   1.33582
 Alpha virt. eigenvalues --    1.34278   1.35679   1.36142   1.36781   1.37366
 Alpha virt. eigenvalues --    1.37895   1.40227   1.41300   1.42722   1.43483
 Alpha virt. eigenvalues --    1.43609   1.45924   1.48639   1.49298   1.50693
 Alpha virt. eigenvalues --    1.53358   1.53948   1.54953   1.56250   1.57121
 Alpha virt. eigenvalues --    1.59502   1.61664   1.62437   1.65279   1.66419
 Alpha virt. eigenvalues --    1.66957   1.68516   1.69763   1.72182   1.72814
 Alpha virt. eigenvalues --    1.75063   1.77158   1.77889   1.79200   1.79938
 Alpha virt. eigenvalues --    1.81005   1.81421   1.81540   1.84204   1.85976
 Alpha virt. eigenvalues --    1.86751   1.87499   1.89591   1.90624   1.92054
 Alpha virt. eigenvalues --    1.93210   1.93593   1.96524   1.97731   1.98548
 Alpha virt. eigenvalues --    2.02416   2.02608   2.04386   2.05134   2.07501
 Alpha virt. eigenvalues --    2.11154   2.13635   2.15262   2.16405   2.19562
 Alpha virt. eigenvalues --    2.22222   2.23259   2.24432   2.25837   2.27385
 Alpha virt. eigenvalues --    2.30404   2.32449   2.32747   2.35662   2.36826
 Alpha virt. eigenvalues --    2.38396   2.41563   2.43303   2.46785   2.47074
 Alpha virt. eigenvalues --    2.48735   2.50819   2.51765   2.52518   2.55831
 Alpha virt. eigenvalues --    2.56273   2.58910   2.60104   2.60715   2.63807
 Alpha virt. eigenvalues --    2.68100   2.74222   2.82577   2.84634   2.85307
 Alpha virt. eigenvalues --    2.88124   2.90902   2.96612   2.98850   3.00868
 Alpha virt. eigenvalues --    3.07923   3.25292   3.34666   3.35133   3.36509
 Alpha virt. eigenvalues --    3.37326   3.38228   3.38994   3.40240   3.41266
 Alpha virt. eigenvalues --    3.42718   3.43097   3.45053   3.45487   3.46882
 Alpha virt. eigenvalues --    3.48264   3.49480   3.52337   3.55772   3.57292
 Alpha virt. eigenvalues --    3.61266   3.68128   3.78290   3.78925   3.81481
 Alpha virt. eigenvalues --    3.96962   3.99473   4.04555   4.54158   4.55747
 Alpha virt. eigenvalues --    4.62502   4.67422   4.82389   5.71321   5.75683
 Alpha virt. eigenvalues --    5.84009  13.69995  13.71104  13.76495  13.79980
 Alpha virt. eigenvalues --   13.94033  22.00973
          Condensed to atoms (all electrons):
              1          2          3          4          5          6
     1  C    6.686186   0.022437  -0.245176  -0.122414  -0.237891  -0.201915
     2  H    0.022437   2.605410  -0.641688  -0.030766   0.031287  -0.112004
     3  H   -0.245176  -0.641688   3.278786  -0.271407  -0.067165   0.026112
     4  N   -0.122414  -0.030766  -0.271407   7.975333   0.317155  -0.614789
     5  H   -0.237891   0.031287  -0.067165   0.317155   0.968438  -0.000030
     6  P   -0.201915  -0.112004   0.026112  -0.614789  -0.000030  15.076393
     7  O    0.038437   0.013157   0.009134  -0.079594   0.005194  -0.118099
     8  O    0.084393   0.015790  -0.015379  -0.059814   0.001635  -0.196370
     9  C   -0.714714  -0.562984  -0.133737  -0.024004   0.047013   0.019917
    10  H   -0.268377  -0.123364   0.088418  -0.076949   0.009459   0.043954
    11  C   -0.362635   0.255883  -0.289067   0.061989   0.037436   0.014926
    12  H    0.176716   0.007110   0.031727   0.015558  -0.003699   0.001131
    13  H   -0.284620   0.014364  -0.173571  -0.020818   0.019779   0.006254
    14  O   -0.006162  -0.000583   0.003715   0.002586   0.039717  -0.011852
    15  H   -0.000245  -0.001309   0.002970  -0.019308   0.006042   0.030498
    16  H    0.000346   0.000661  -0.009630   0.015502   0.004129   0.012355
    17  O   -0.005076  -0.003832   0.004773  -0.012806   0.007881  -0.007541
    18  H    0.006886  -0.000725   0.002391  -0.043170  -0.001130   0.007034
    19  H   -0.006166  -0.002518   0.000847   0.018517   0.000158  -0.001040
    20  O   -0.002489   0.001761  -0.010596   0.001584   0.002303   0.010353
    21  H    0.011987   0.019225  -0.017569  -0.003123  -0.001953  -0.002536
    22  H   -0.003639  -0.014472  -0.001758   0.008930   0.000802   0.021504
    23  H    0.078586  -0.016714   0.064231   0.077602  -0.259959  -0.054599
    24  S    0.160983   0.072824  -0.004742   0.073816   0.006800  -0.770023
    25  I   -0.033183  -0.022000   0.000754   0.015068   0.004715   0.019383
              7          8          9         10         11         12
     1  C    0.038437   0.084393  -0.714714  -0.268377  -0.362635   0.176716
     2  H    0.013157   0.015790  -0.562984  -0.123364   0.255883   0.007110
     3  H    0.009134  -0.015379  -0.133737   0.088418  -0.289067   0.031727
     4  N   -0.079594  -0.059814  -0.024004  -0.076949   0.061989   0.015558
     5  H    0.005194   0.001635   0.047013   0.009459   0.037436  -0.003699
     6  P   -0.118099  -0.196370   0.019917   0.043954   0.014926   0.001131
     7  O    9.024440  -0.064426  -0.035298  -0.006464   0.001543   0.000386
     8  O   -0.064426   8.967258  -0.013299  -0.003099  -0.001266   0.000127
     9  C   -0.035298  -0.013299   7.596333  -0.553142  -1.000646   0.177985
    10  H   -0.006464  -0.003099  -0.553142   3.029354  -0.205099  -0.275129
    11  C    0.001543  -0.001266  -1.000646  -0.205099   6.799899  -0.246999
    12  H    0.000386   0.000127   0.177985  -0.275129  -0.246999   2.364862
    13  H   -0.001372  -0.001451  -0.202188   0.167396   0.332625  -0.718161
    14  O   -0.011294  -0.022959   0.011400  -0.001857  -0.001642  -0.000034
    15  H    0.065968  -0.007980  -0.003844   0.000356   0.000632  -0.000170
    16  H   -0.012739   0.060250  -0.002471  -0.000889   0.000258   0.000352
    17  O   -0.029439  -0.003157  -0.002749   0.005730   0.000760  -0.000024
    18  H    0.112163   0.000536  -0.004274   0.000386  -0.000252  -0.000118
    19  H   -0.014171   0.003004   0.005949  -0.000218   0.000311   0.000122
    20  O    0.000553  -0.025154  -0.009627  -0.000256   0.000563  -0.000169
    21  H    0.002156   0.070993  -0.008518  -0.001586   0.007249   0.000462
    22  H    0.000346  -0.018108   0.001777   0.000762  -0.000800  -0.000127
    23  H   -0.017418   0.021389  -0.074739  -0.054903  -0.032768   0.008482
    24  S    0.053117   0.095729  -0.063288  -0.003985   0.006812  -0.000119
    25  I    0.014028   0.009414   0.001751   0.000432  -0.000108  -0.000022
             13         14         15         16         17         18
     1  C   -0.284620  -0.006162  -0.000245   0.000346  -0.005076   0.006886
     2  H    0.014364  -0.000583  -0.001309   0.000661  -0.003832  -0.000725
     3  H   -0.173571   0.003715   0.002970  -0.009630   0.004773   0.002391
     4  N   -0.020818   0.002586  -0.019308   0.015502  -0.012806  -0.043170
     5  H    0.019779   0.039717   0.006042   0.004129   0.007881  -0.001130
     6  P    0.006254  -0.011852   0.030498   0.012355  -0.007541   0.007034
     7  O   -0.001372  -0.011294   0.065968  -0.012739  -0.029439   0.112163
     8  O   -0.001451  -0.022959  -0.007980   0.060250  -0.003157   0.000536
     9  C   -0.202188   0.011400  -0.003844  -0.002471  -0.002749  -0.004274
    10  H    0.167396  -0.001857   0.000356  -0.000889   0.005730   0.000386
    11  C    0.332625  -0.001642   0.000632   0.000258   0.000760  -0.000252
    12  H   -0.718161  -0.000034  -0.000170   0.000352  -0.000024  -0.000118
    13  H    2.430577   0.000307   0.000350  -0.000810  -0.000098   0.000043
    14  O    0.000307   7.879023   0.232922   0.237263  -0.000841  -0.000193
    15  H    0.000350   0.232922   0.598571  -0.062150   0.000501  -0.004572
    16  H   -0.000810   0.237263  -0.062150   0.591952   0.000118   0.000473
    17  O   -0.000098  -0.000841   0.000501   0.000118   7.889275   0.179244
    18  H    0.000043  -0.000193  -0.004572   0.000473   0.179244   0.583317
    19  H   -0.000171   0.000048  -0.000460   0.000111   0.297828  -0.060503
    20  O    0.003148  -0.000261  -0.000062   0.000665   0.000235   0.000231
    21  H   -0.001377  -0.000705   0.000055  -0.001707  -0.000555  -0.000449
    22  H    0.000483   0.000151   0.000208  -0.000459   0.000352   0.000058
    23  H   -0.013534   0.001323   0.000095  -0.001571   0.025561   0.017728
    24  S   -0.000684   0.001172  -0.004006  -0.002882  -0.025058  -0.002333
    25  I    0.000099   0.000204  -0.001238   0.000232   0.003563   0.006700
             19         20         21         22         23         24
     1  C   -0.006166  -0.002489   0.011987  -0.003639   0.078586   0.160983
     2  H   -0.002518   0.001761   0.019225  -0.014472  -0.016714   0.072824
     3  H    0.000847  -0.010596  -0.017569  -0.001758   0.064231  -0.004742
     4  N    0.018517   0.001584  -0.003123   0.008930   0.077602   0.073816
     5  H    0.000158   0.002303  -0.001953   0.000802  -0.259959   0.006800
     6  P   -0.001040   0.010353  -0.002536   0.021504  -0.054599  -0.770023
     7  O   -0.014171   0.000553   0.002156   0.000346  -0.017418   0.053117
     8  O    0.003004  -0.025154   0.070993  -0.018108   0.021389   0.095729
     9  C    0.005949  -0.009627  -0.008518   0.001777  -0.074739  -0.063288
    10  H   -0.000218  -0.000256  -0.001586   0.000762  -0.054903  -0.003985
    11  C    0.000311   0.000563   0.007249  -0.000800  -0.032768   0.006812
    12  H    0.000122  -0.000169   0.000462  -0.000127   0.008482  -0.000119
    13  H   -0.000171   0.003148  -0.001377   0.000483  -0.013534  -0.000684
    14  O    0.000048  -0.000261  -0.000705   0.000151   0.001323   0.001172
    15  H   -0.000460  -0.000062   0.000055   0.000208   0.000095  -0.004006
    16  H    0.000111   0.000665  -0.001707  -0.000459  -0.001571  -0.002882
    17  O    0.297828   0.000235  -0.000555   0.000352   0.025561  -0.025058
    18  H   -0.060503   0.000231  -0.000449   0.000058   0.017728  -0.002333
    19  H    0.636171   0.000054   0.000062  -0.000207   0.000865  -0.007654
    20  O    0.000054   7.807028   0.164180   0.328787  -0.000960  -0.018641
    21  H    0.000062   0.164180   0.662691  -0.092148  -0.000508   0.007477
    22  H   -0.000207   0.328787  -0.092148   0.707657   0.000187  -0.025119
    23  H    0.000865  -0.000960  -0.000508   0.000187   1.173695  -0.004640
    24  S   -0.007654  -0.018641   0.007477  -0.025119  -0.004640  17.023514
    25  I    0.007296   0.004421  -0.003220   0.016854  -0.010329  -0.154207
             25
     1  C   -0.033183
     2  H   -0.022000
     3  H    0.000754
     4  N    0.015068
     5  H    0.004715
     6  P    0.019383
     7  O    0.014028
     8  O    0.009414
     9  C    0.001751
    10  H    0.000432
    11  C   -0.000108
    12  H   -0.000022
    13  H    0.000099
[...]
 The electronic state is 1-A.
 Alpha  occ. eigenvalues --  -88.93471 -77.18661 -19.15981 -19.15700 -19.14676
 Alpha  occ. eigenvalues --  -19.14285 -19.13918 -14.41971 -10.24473 -10.20810
 Alpha  occ. eigenvalues --  -10.19818  -7.99245  -6.66076  -5.95762  -5.95297
 Alpha  occ. eigenvalues --   -5.94615  -4.82430  -4.82261  -4.81964  -2.17461
 Alpha  occ. eigenvalues --   -2.16984  -2.16909  -2.15555  -2.15555  -1.03643
 Alpha  occ. eigenvalues --   -1.02266  -1.01738  -1.00200  -0.97316  -0.96527
 Alpha  occ. eigenvalues --   -0.80304  -0.78130  -0.70555  -0.68391  -0.59441
 Alpha  occ. eigenvalues --   -0.57689  -0.56955  -0.54299  -0.53738  -0.52611
 Alpha  occ. eigenvalues --   -0.50624  -0.48317  -0.46625  -0.43904  -0.43803
 Alpha  occ. eigenvalues --   -0.42848  -0.40869  -0.40323  -0.39954  -0.38398
 Alpha  occ. eigenvalues --   -0.37729  -0.36562  -0.34661  -0.34055  -0.33201
 Alpha  occ. eigenvalues --   -0.32899  -0.32635  -0.31986  -0.31386  -0.30796
 Alpha  occ. eigenvalues --   -0.28618  -0.27834  -0.25711
 Alpha virt. eigenvalues --   -0.12464  -0.03755  -0.01827   0.00216   0.00769
 Alpha virt. eigenvalues --    0.01025   0.01310   0.02840   0.03365   0.03661
 Alpha virt. eigenvalues --    0.03896   0.05080   0.05357   0.06692   0.06945
 Alpha virt. eigenvalues --    0.07250   0.07711   0.07966   0.08606   0.09188
 Alpha virt. eigenvalues --    0.09966   0.10669   0.10940   0.11409   0.12226
 Alpha virt. eigenvalues --    0.12928   0.13531   0.14016   0.14513   0.14974
 Alpha virt. eigenvalues --    0.15102   0.15804   0.16563   0.16888   0.17259
 Alpha virt. eigenvalues --    0.17630   0.17945   0.18390   0.18519   0.19271
 Alpha virt. eigenvalues --    0.19491   0.19975   0.20165   0.21050   0.21306
 Alpha virt. eigenvalues --    0.21781   0.22178   0.22680   0.23106   0.23767
 Alpha virt. eigenvalues --    0.24261   0.24939   0.25608   0.26165   0.26953
 Alpha virt. eigenvalues --    0.27372   0.28194   0.28563   0.30174   0.31246
 Alpha virt. eigenvalues --    0.31631   0.32110   0.32470   0.33304   0.33739
 Alpha virt. eigenvalues --    0.34402   0.35199   0.36111   0.36494   0.37436
 Alpha virt. eigenvalues --    0.38145   0.38973   0.40615   0.40883   0.41743
 Alpha virt. eigenvalues --    0.42431   0.43081   0.43151   0.44660   0.45425
 Alpha virt. eigenvalues --    0.46467   0.46707   0.48487   0.49467   0.50258
 Alpha virt. eigenvalues --    0.50947   0.51747   0.52378   0.53847   0.54495
 Alpha virt. eigenvalues --    0.55139   0.55596   0.56102   0.57607   0.57860
 Alpha virt. eigenvalues --    0.59272   0.60374   0.60764   0.61314   0.62515
 Alpha virt. eigenvalues --    0.64594   0.64733   0.66732   0.67602   0.68820
 Alpha virt. eigenvalues --    0.69373   0.69860   0.70851   0.71401   0.72691
 Alpha virt. eigenvalues --    0.73152   0.73739   0.73844   0.74398   0.75331
 Alpha virt. eigenvalues --    0.76426   0.77712   0.78283   0.78854   0.79473
 Alpha virt. eigenvalues --    0.79810   0.80686   0.81358   0.82174   0.82322
 Alpha virt. eigenvalues --    0.82745   0.83968   0.85277   0.86228   0.86887
 Alpha virt. eigenvalues --    0.87509   0.88566   0.89320   0.89630   0.91438
 Alpha virt. eigenvalues --    0.91668   0.92169   0.92665   0.93505   0.94904
 Alpha virt. eigenvalues --    0.95501   0.96722   0.97163   0.98159   0.98318
 Alpha virt. eigenvalues --    1.00150   1.01416   1.01797   1.02820   1.03959
 Alpha virt. eigenvalues --    1.04553   1.06883   1.07797   1.08826   1.08965
 Alpha virt. eigenvalues --    1.09778   1.10257   1.10707   1.11271   1.11978
 Alpha virt. eigenvalues --    1.13632   1.15549   1.16555   1.16879   1.17792
 Alpha virt. eigenvalues --    1.18465   1.19449   1.20754   1.22287   1.23073
 Alpha virt. eigenvalues --    1.23585   1.24932   1.25503   1.26831   1.27598
 Alpha virt. eigenvalues --    1.28938   1.30268   1.32580   1.33649   1.34638
 Alpha virt. eigenvalues --    1.35800   1.36950   1.38019   1.39643   1.41363
 Alpha virt. eigenvalues --    1.42716   1.44172   1.45382   1.46186   1.47487
 Alpha virt. eigenvalues --    1.50236   1.52044   1.53905   1.54240   1.56054
 Alpha virt. eigenvalues --    1.58052   1.58537   1.60202   1.61782   1.64164
 Alpha virt. eigenvalues --    1.65882   1.65971   1.67848   1.68687   1.69360
 Alpha virt. eigenvalues --    1.70656   1.72715   1.73105   1.74368   1.75177
 Alpha virt. eigenvalues --    1.76674   1.77673   1.78899   1.80506   1.80728
 Alpha virt. eigenvalues --    1.82841   1.83895   1.84127   1.84780   1.85158
 Alpha virt. eigenvalues --    1.85612   1.87606   1.87956   1.89324   1.91380
 Alpha virt. eigenvalues --    1.92519   1.94058   1.95856   1.96785   2.00406
 Alpha virt. eigenvalues --    2.01418   2.03618   2.04137   2.09812   2.12147
 Alpha virt. eigenvalues --    2.12775   2.13767   2.14226   2.15710   2.18882
 Alpha virt. eigenvalues --    2.20672   2.21807   2.23504   2.24987   2.25916
 Alpha virt. eigenvalues --    2.27532   2.29960   2.31421   2.32639   2.34757
 Alpha virt. eigenvalues --    2.36408   2.37284   2.39897   2.40617   2.42423
 Alpha virt. eigenvalues --    2.42901   2.43845   2.46444   2.47541   2.48738
 Alpha virt. eigenvalues --    2.50210   2.53532   2.56389   2.60646   2.63839
 Alpha virt. eigenvalues --    2.65155   2.65654   2.70083   2.72611   2.74751
 Alpha virt. eigenvalues --    2.77199   2.85330   2.88205   2.97408   3.09554
 Alpha virt. eigenvalues --    3.16608   3.19066   3.19938   3.22538   3.23200
 Alpha virt. eigenvalues --    3.26865   3.27985   3.30343   3.32114   3.33841
 Alpha virt. eigenvalues --    3.35887   3.36360   3.38695   3.41737   3.42596
 Alpha virt. eigenvalues --    3.47622   3.48813   3.51871   3.56122   3.57183
 Alpha virt. eigenvalues --    3.60395   3.63389   3.66313   3.68557   3.73205
 Alpha virt. eigenvalues --    3.79374   3.82798   3.85914   3.92212   4.58446
 Alpha virt. eigenvalues --    4.59639   4.63984   4.71896   4.83163   4.85461
 Alpha virt. eigenvalues --    4.92950   5.05318   5.07232   5.21828   5.34330
 Alpha virt. eigenvalues --    5.38075   5.41919   5.49391   5.51620   5.52460
 Alpha virt. eigenvalues --    5.53707   5.55182   5.56228   5.57331   5.57757
 Alpha virt. eigenvalues --    5.69246   5.72115   5.73381   5.77529   5.82231
 Alpha virt. eigenvalues --    6.77964   6.80077   6.84151   6.84784   6.90981
 Alpha virt. eigenvalues --    6.92605   6.95324   8.72753   8.97301   9.00677
 Alpha virt. eigenvalues --   10.07600  13.74135  13.74999  13.78685  13.84065
 Alpha virt. eigenvalues --   13.94873  20.69128  20.72380  20.81103  20.93748
 Alpha virt. eigenvalues --   20.97287  21.95577  35.03786  35.25589  35.27053
 Alpha virt. eigenvalues --   36.68191  36.78504  36.92905  36.96198  37.00394
 Alpha virt. eigenvalues --   37.00854  37.01690  37.03409  37.04652  37.05766
 Alpha virt. eigenvalues --   37.07966  37.15864  37.24775  59.02546
          Condensed to atoms (all electrons):
              1          2          3          4          5          6
     1  C    5.365410   0.376766   0.384643   0.110735  -0.019450  -0.128669
     2  H    0.376766   0.431091  -0.008484   0.000711   0.001412   0.005685
     3  H    0.384643  -0.008484   0.452981  -0.023539  -0.002280   0.000403
     4  N    0.110735   0.000711  -0.023539   6.809250   0.346527   0.135989
     5  H   -0.019450   0.001412  -0.002280   0.346527   0.333503  -0.021787
     6  P   -0.128669   0.005685   0.000403   0.135989  -0.021787  13.443385
     7  O    0.038387   0.000423   0.000270  -0.056126   0.002782   0.025168
     8  O    0.038290   0.000193  -0.000394  -0.005976  -0.006771  -0.081835
     9  C    0.192723  -0.041122  -0.027083  -0.041458   0.003537  -0.007818
    10  H   -0.017046   0.000144   0.001855   0.001985  -0.000235  -0.000155
    11  C   -0.059810   0.010284  -0.016577   0.022801  -0.001476   0.000940
    12  H    0.004281  -0.000043   0.000091  -0.000978  -0.000002   0.000117
    13  H   -0.012793   0.000033   0.003415  -0.000084   0.000038   0.000000
    14  O   -0.015869  -0.000420   0.001549  -0.060932   0.030232  -0.003661
    15  H    0.002460   0.000000  -0.000006   0.005005  -0.001060   0.003808
    16  H    0.004433   0.000003  -0.000035  -0.004371  -0.003762   0.015056
    17  O   -0.004100   0.000808  -0.000328  -0.066052   0.000061   0.010464
    18  H    0.000418   0.000001   0.000000   0.000749   0.000131   0.008100
    19  H   -0.001066   0.000000   0.000000   0.005582   0.000002   0.002725
    20  O   -0.052106   0.000269   0.001458   0.010714  -0.000294  -0.010073
    21  H    0.010228   0.000030  -0.004127  -0.003373   0.000013   0.001492
    22  H    0.004528  -0.000002   0.000378  -0.001430   0.000001   0.002558
    23  H   -0.038244  -0.002217   0.001717   0.362797  -0.001566  -0.014721
    24  S   -0.033177  -0.008023  -0.000377   0.035290   0.001350   0.244823
    25  I    0.072843  -0.000087  -0.000185  -0.017951  -0.000086  -0.243651
              7          8          9         10         11         12
     1  C    0.038387   0.038290   0.192723  -0.017046  -0.059810   0.004281
     2  H    0.000423   0.000193  -0.041122   0.000144   0.010284  -0.000043
     3  H    0.000270  -0.000394  -0.027083   0.001855  -0.016577   0.000091
     4  N   -0.056126  -0.005976  -0.041458   0.001985   0.022801  -0.000978
     5  H    0.002782  -0.006771   0.003537  -0.000235  -0.001476  -0.000002
     6  P    0.025168  -0.081835  -0.007818  -0.000155   0.000940   0.000117
     7  O    8.962842  -0.008777  -0.006172   0.000031   0.002263  -0.000002
     8  O   -0.008777   9.036344  -0.011041   0.000003   0.007473  -0.000010
     9  C   -0.006172  -0.011041   5.250289   0.387463   0.093943   0.011830
    10  H    0.000031   0.000003   0.387463   0.466470  -0.007208  -0.003505
    11  C    0.002263   0.007473   0.093943  -0.007208   5.712088   0.378531
    12  H   -0.000002  -0.000010   0.011830  -0.003505   0.378531   0.478332
    13  H   -0.000001   0.000054   0.017851   0.001857   0.374557  -0.023142
    14  O   -0.007773  -0.031898   0.014783  -0.000197  -0.002077  -0.000020
    15  H   -0.001032   0.002778  -0.001287   0.000000   0.000290   0.000000
    16  H   -0.000264   0.006683  -0.001837   0.000000   0.000395   0.000000
    17  O   -0.038177  -0.002405  -0.001969   0.000111  -0.004104   0.000002
    18  H    0.012855  -0.000021   0.000550  -0.000003   0.000038   0.000000
    19  H    0.003603  -0.000026   0.000752  -0.000004   0.000098   0.000000
    20  O    0.000428  -0.033344   0.012257  -0.000033  -0.005948   0.000002
    21  H    0.000290   0.011109  -0.000747   0.000000   0.000666   0.000000
    22  H   -0.000009   0.004811  -0.000655   0.000000   0.000327   0.000000
    23  H   -0.005318  -0.000503   0.005171  -0.000157   0.000952  -0.000001
    24  S   -0.067050  -0.086111   0.014851  -0.000167  -0.003317   0.000014
    25  I    0.046451   0.015923  -0.016184   0.000025   0.002981   0.000000
             13         14         15         16         17         18
     1  C   -0.012793  -0.015869   0.002460   0.004433  -0.004100   0.000418
     2  H    0.000033  -0.000420   0.000000   0.000003   0.000808   0.000001
     3  H    0.003415   0.001549  -0.000006  -0.000035  -0.000328   0.000000
     4  N   -0.000084  -0.060932   0.005005  -0.004371  -0.066052   0.000749
     5  H    0.000038   0.030232  -0.001060  -0.003762   0.000061   0.000131
     6  P    0.000000  -0.003661   0.003808   0.015056   0.010464   0.008100
     7  O   -0.000001  -0.007773  -0.001032  -0.000264  -0.038177   0.012855
     8  O    0.000054  -0.031898   0.002778   0.006683  -0.002405  -0.000021
     9  C    0.017851   0.014783  -0.001287  -0.001837  -0.001969   0.000550
    10  H    0.001857  -0.000197   0.000000   0.000000   0.000111  -0.000003
    11  C    0.374557  -0.002077   0.000290   0.000395  -0.004104   0.000038
    12  H   -0.023142  -0.000020   0.000000   0.000000   0.000002   0.000000
    13  H    0.490847   0.000269   0.000000  -0.000003   0.000005   0.000000
    14  O    0.000269   8.053826   0.316573   0.306938  -0.000246   0.000012
    15  H    0.000000   0.316573   0.379184  -0.013378  -0.000104   0.000002
    16  H   -0.000003   0.306938  -0.013378   0.369802  -0.000049   0.000002
    17  O    0.000005  -0.000246  -0.000104  -0.000049   8.096336   0.301786
    18  H    0.000000   0.000012   0.000002   0.000002   0.301786   0.354022
    19  H    0.000000  -0.000015   0.000000   0.000000   0.316560  -0.014140
    20  O   -0.000273  -0.001500  -0.000071  -0.000061   0.000005   0.000000
    21  H    0.000000   0.000012  -0.000002   0.000204   0.000006   0.000000
    22  H    0.000003  -0.000047   0.000000  -0.000009   0.000000   0.000000
    23  H    0.000004   0.001484   0.000000   0.000039   0.025312  -0.004196
    24  S   -0.000140  -0.002414  -0.000075  -0.000360  -0.004371  -0.000182
    25  I    0.000000   0.000077   0.000000  -0.000001   0.009593   0.000173
             19         20         21         22         23         24
     1  C   -0.001066  -0.052106   0.010228   0.004528  -0.038244  -0.033177
     2  H    0.000000   0.000269   0.000030  -0.000002  -0.002217  -0.008023
     3  H    0.000000   0.001458  -0.004127   0.000378   0.001717  -0.000377
     4  N    0.005582   0.010714  -0.003373  -0.001430   0.362797   0.035290
     5  H    0.000002  -0.000294   0.000013   0.000001  -0.001566   0.001350
     6  P    0.002725  -0.010073   0.001492   0.002558  -0.014721   0.244823
     7  O    0.003603   0.000428   0.000290  -0.000009  -0.005318  -0.067050
     8  O   -0.000026  -0.033344   0.011109   0.004811  -0.000503  -0.086111
     9  C    0.000752   0.012257  -0.000747  -0.000655   0.005171   0.014851
    10  H   -0.000004  -0.000033   0.000000   0.000000  -0.000157  -0.000167
    11  C    0.000098  -0.005948   0.000666   0.000327   0.000952  -0.003317
    12  H    0.000000   0.000002   0.000000   0.000000  -0.000001   0.000014
    13  H    0.000000  -0.000273   0.000000   0.000003   0.000004  -0.000140
    14  O   -0.000015  -0.001500   0.000012  -0.000047   0.001484  -0.002414
    15  H    0.000000  -0.000071  -0.000002   0.000000   0.000000  -0.000075
    16  H    0.000000  -0.000061   0.000204  -0.000009   0.000039  -0.000360
    17  O    0.316560   0.000005   0.000006   0.000000   0.025312  -0.004371
    18  H   -0.014140   0.000000   0.000000   0.000000  -0.004196  -0.000182
    19  H    0.383298   0.000000   0.000000   0.000000  -0.000865   0.000088
    20  O    0.000000   8.108494   0.297237   0.313857  -0.000047   0.002432
    21  H    0.000000   0.297237   0.377240  -0.016914  -0.000001  -0.000920
    22  H    0.000000   0.313857  -0.016914   0.398352   0.000000  -0.000704
    23  H   -0.000865  -0.000047  -0.000001   0.000000   0.337946   0.001165
    24  S    0.000088   0.002432  -0.000920  -0.000704   0.001165  16.266193
    25  I   -0.000230   0.000035   0.000001   0.000000   0.000727   0.061895
             25
     1  C    0.072843
     2  H   -0.000087
     3  H   -0.000185
     4  N   -0.017951
     5  H   -0.000086
     6  P   -0.243651
     7  O    0.046451
     8  O    0.015923
     9  C   -0.016184
    10  H    0.000025
    11  C    0.002981
    12  H    0.000000
    13  H    0.000000
    14  O    0.000077
    15  H    0.000000
    16  H   -0.000001
    17  O    0.009593
    18  H    0.000173
    19  H   -0.000230
    20  O    0.000035
    21  H    0.000001
    22  H    0.000000
    23  H    0.000727
    24  S    0.061895
    25  I   16.972290
 Mulliken atomic charges:
              1
     1  C   -0.223814
     2  H    0.232544
     3  H    0.234657
     4  N   -0.565867
     5  H    0.339181
     6  P    1.611656
     7  O   -0.905093
     8  O   -0.854551
     9  C    0.151373
    10  H    0.168763
    11  C   -0.508109
    12  H    0.154503
    13  H    0.147502
    14  O   -0.598685
    15  H    0.306915
    16  H    0.320577
    17  O   -0.639140
    18  H    0.339704
    19  H    0.303637
    20  O   -0.643438
    21  H    0.327558
    22  H    0.294954
    23  H    0.330521
    24  S   -0.420713
    25  I    0.095363
 Sum of Mulliken charges=   0.00000
 Atomic charges with hydrogens summed into heavy atoms:
              1
     1  C    0.243388
     2  H    0.000000
     3  H    0.000000
     4  N    0.103835
     5  H    0.000000
     6  P    1.611656
     7  O   -0.905093
     8  O   -0.854551
     9  C    0.320137
    10  H    0.000000
    11  C   -0.206104
    12  H    0.000000
    13  H    0.000000
    14  O    0.028807
    15  H    0.000000
    16  H    0.000000
    17  O    0.004201
    18  H    0.000000
    19  H    0.000000
    20  O   -0.020926
    21  H    0.000000
    22  H    0.000000
    23  H    0.000000
    24  S   -0.420713
    25  I    0.095363
 Sum of Mulliken charges=   0.00000
 Electronic spatial extent (au):  <R**2>=  4104.6777
 Charge=     0.0000 electrons
 Dipole moment (field-independent basis, Debye):
    X=    -0.5879    Y=     4.2564    Z=    -1.4826  Tot=     4.5454
 Quadrupole moment (field-independent basis, Debye-Ang):
   XX=   -98.4226   YY=  -100.9295   ZZ=  -112.8918
   XY=    -5.7193   XZ=     2.8318   YZ=     0.5668
 Traceless Quadrupole moment (field-independent basis, Debye-Ang):
   XX=     5.6587   YY=     3.1518   ZZ=    -8.8105
   XY=    -5.7193   XZ=     2.8318   YZ=     0.5668
 Octapole moment (field-independent basis, Debye-Ang**2):
  XXX=  -144.2487  YYY=     2.6877  ZZZ=     9.1746  XYY=   -25.2836
  XXY=    17.8329  XXZ=    14.7974  XZZ=   -15.2165  YZZ=     0.7433
  YYZ=   -22.0550  XYZ=   -11.9318
 Hexadecapole moment (field-independent basis, Debye-Ang**3):
 XXXX= -3209.9764 YYYY= -1181.5722 ZZZZ= -1185.0256 XXXY=  -138.1404
 XXXZ=   100.7283 YYYX=  -178.0811 YYYZ=    63.4309 ZZZX=   181.1651
 ZZZY=    23.4238 XXYY=  -624.6363 XXZZ=  -605.0252 YYZZ=  -420.1922
 XXYZ=     6.6083 YYXZ=   -70.8536 ZZXY=   -52.4167
 N-N= 1.161038485092D+03 E-N=-5.644349085419D+03  KE= 1.360157082613D+03
 Calculating spin-rotation constants.
 Leave Link  601 at Sat Aug  2 22:51:37 2008, MaxMem= 1073741824 cpu:     158.7
 (Enter /usr/local/Chem-Apps/g03_d01/g03/l9999.exe)
 1\1\ SGI ALTIX 4700 1.6GHZ/9MB-MAGELLAN\SP\RB3LYP\Gen\C3H13I1N1O5P1S1\
 IK1\02-Aug-2008\0\\#p nmr=giao b3lyp/Gen scf=tight integral=(grid=ultr
 afine) pseudo=read scrf=(pcm,solvent=water,read) guess=read geom=check
 point\\Molecule 10, NMR.\\0,1\C,0,-1.3293588629,0.1679127922,-0.907397
 0306\H,0,-0.9384396039,0.3808294396,-1.9090155162\H,0,-1.4917485976,1.
 1172870536,-0.3860976703\N,0,-0.2497251359,-0.581198082,-0.175239375\H
 ,0,-0.5782504179,-0.8032811659,0.7871723885\P,0,1.4029560502,0.2777613
 722,0.1731837939\O,0,2.3573831759,-0.8951135403,0.2671759893\O,0,1.062
 3104081,1.2505675769,1.3024522337\C,0,-2.5887603167,-0.6490960759,-0.9
 711705238\H,0,-2.5352821824,-1.5923073754,-1.523760835\C,0,-3.74046371
 08,-0.2691653766,-0.4112096194\H,0,-4.6399827637,-0.8789327834,-0.4960
 157272\H,0,-3.8212107181,0.6658391464,0.1456899485\O,0,-0.676384957,-0
 .5254677404,2.6438250164\H,0,-0.3193579134,-1.1297784589,3.3050088581\
 H,0,-0.0268525735,0.2006133844,2.5673827313\O,0,1.0395586558,-2.997925
 7926,-0.9047920526\H,0,1.7599472931,-2.4563661105,-0.5136821311\H,0,1.
 3914153601,-3.3485340645,-1.7304804441\O,0,-1.077685359,3.0377684172,0
 .8683544202\H,0,-0.2577527798,2.5714988676,1.1196434266\H,0,-1.0766778
 801,3.8570831793,1.3744773244\H,0,-0.0201425828,-1.4829284966,-0.63473
 09734\S,0,1.7020230393,1.5740718979,-1.5041898738\I,0,2.5269978929,0.1
 09827846,-3.3061336184\\Version=IA64L-G03RevD.01\State=1-A\HF=-1404.34
 44122\RMSD=4.675e-09\Thermal=0.\Dipole=-0.8934239,-1.028583,-1.1583849
 \PG=C01 [X(C3H13I1N1O5P1S1)]\\@


 I am not a vegetarian because I love animals;
 I am a vegetarian because I hate plants.
                               -- A. Whitney Brown
 Job cpu time:  0 days  0 hours 11 minutes 53.4 seconds.
 File lengths (MBytes):  RWF=    284 Int=      0 D2E=      0 Chk=     23 Scr=      1
 Normal termination of Gaussian 03 at Sat Aug  2 22:51:37 2008.
