 Entering Gaussian System, Link 0=/usr/local/Chem-Apps/g03_d01/g03/g03
 Initial command:
 /usr/local/Chem-Apps/g03_d01/g03/l1.exe /scratch/LSF_69156/Gau-17619.inp -scrdir=/scratch/LSF_69156/
 Entering Link 1 = /usr/local/Chem-Apps/g03_d01/g03/l1.exe PID=     17620.
  
 Copyright (c) 1988,1990,1992,1993,1995,1998,2003,2004, Gaussian, Inc.
                  All Rights Reserved.
  
 This is the Gaussian(R) 03 program.  It is based on the
 the Gaussian(R) 98 system (copyright 1998, Gaussian, Inc.),
 the Gaussian(R) 94 system (copyright 1995, Gaussian, Inc.),
 the Gaussian 92(TM) system (copyright 1992, Gaussian, Inc.),
 the Gaussian 90(TM) system (copyright 1990, Gaussian, Inc.),
 the Gaussian 88(TM) system (copyright 1988, Gaussian, Inc.),
 the Gaussian 86(TM) system (copyright 1986, Carnegie Mellon
 University), and the Gaussian 82(TM) system (copyright 1983,
 Carnegie Mellon University). Gaussian is a federally registered
 trademark of Gaussian, Inc.
  
 This software contains proprietary and confidential information,
 including trade secrets, belonging to Gaussian, Inc.
  
 This software is provided under written license and may be
 used, copied, transmitted, or stored only in accord with that
 written license.
  
 The following legend is applicable only to US Government
 contracts under FAR:
  
                    RESTRICTED RIGHTS LEGEND
  
 Use, reproduction and disclosure by the US Government is
 subject to restrictions as set forth in subparagraphs (a)
 and (c) of the Commercial Computer Software - Restricted
 Rights clause in FAR 52.227-19.
  
 Gaussian, Inc.
 340 Quinnipiac St., Bldg. 40, Wallingford CT 06492
  
  
 ---------------------------------------------------------------
 Warning -- This program may not be used in any manner that
 competes with the business of Gaussian, Inc. or will provide
 assistance to any competitor of Gaussian, Inc.  The licensee
 of this program is prohibited from giving any competitor of
 Gaussian, Inc. access to this program.  By using this program,
 the user acknowledges that Gaussian, Inc. is engaged in the
 business of creating and licensing software in the field of
 computational chemistry and represents and warrants to the
 licensee that it is not a competitor of Gaussian, Inc. and that
 it will not use this program in any manner prohibited above.
 ---------------------------------------------------------------
  

 Cite this work as:
 Gaussian 03, Revision D.01,
 M. J. Frisch, G. W. Trucks, H. B. Schlegel, G. E. Scuseria, 
 M. A. Robb, J. R. Cheeseman, J. A. Montgomery, Jr., T. Vreven, 
 K. N. Kudin, J. C. Burant, J. M. Millam, S. S. Iyengar, J. Tomasi, 
 V. Barone, B. Mennucci, M. Cossi, G. Scalmani, N. Rega, 
 G. A. Petersson, H. Nakatsuji, M. Hada, M. Ehara, K. Toyota, 
 R. Fukuda, J. Hasegawa, M. Ishida, T. Nakajima, Y. Honda, O. Kitao, 
 H. Nakai, M. Klene, X. Li, J. E. Knox, H. P. Hratchian, J. B. Cross, 
 V. Bakken, C. Adamo, J. Jaramillo, R. Gomperts, R. E. Stratmann, 
 O. Yazyev, A. J. Austin, R. Cammi, C. Pomelli, J. W. Ochterski, 
 P. Y. Ayala, K. Morokuma, G. A. Voth, P. Salvador, J. J. Dannenberg, 
 V. G. Zakrzewski, S. Dapprich, A. D. Daniels, M. C. Strain, 
 O. Farkas, D. K. Malick, A. D. Rabuck, K. Raghavachari, 
 J. B. Foresman, J. V. Ortiz, Q. Cui, A. G. Baboul, S. Clifford, 
 J. Cioslowski, B. B. Stefanov, G. Liu, A. Liashenko, P. Piskorz, 
 I. Komaromi, R. L. Martin, D. J. Fox, T. Keith, M. A. Al-Laham, 
 C. Y. Peng, A. Nanayakkara, M. Challacombe, P. M. W. Gill, 
 B. Johnson, W. Chen, M. W. Wong, C. Gonzalez, and J. A. Pople, 
 Gaussian, Inc., Wallingford CT, 2004.
 
 ******************************************
 Gaussian 03:  IA64L-G03RevD.01 13-Oct-2005
                 3-Aug-2008 
 ******************************************
 %Mem=4GB
 %NProcShared=16
 Will use up to   16 processors via shared memory.
 %Chk=molecule_14.chk
 Default route:  MaxDisk=64GB Cachesize=589840
 ------------------------------------------------------------------
 #p opt=gdiis b3lyp/aug-cc-pVDZ scf=tight integral=(grid=ultrafine)
 ------------------------------------------------------------------
 1/4=589840,14=-1,18=20,19=11,26=3,38=1/1,3;
 2/4=589840,9=110,17=6,18=5,40=1/2;
 3/4=589840,5=16,7=10,11=2,16=1,25=1,30=1,74=-5,75=5/1,2,3;
 4/4=589840/1;
 5/4=589840,5=2,32=2,38=5/2;
 6/4=589840,7=2,8=2,9=2,10=2,28=1/1;
 7/4=589840/1,2,3,16;
 1/4=589840,14=-1,18=20,19=11/3(3);
 2/4=589840,9=110/2;
 6/4=589840,7=2,8=2,9=2,10=2,19=2,28=1/1;
 99/4=589840/99;
 2/4=589840,9=110/2;
 3/4=589840,5=16,7=10,11=2,16=1,25=1,30=1,74=-5,75=5/1,2,3;
 4/4=589840,5=5,16=3/1;
 5/4=589840,5=2,32=2,38=5/2;
 7/4=589840/1,2,3,16;
 1/4=589840,14=-1,18=20,19=11/3(-5);
 2/4=589840,9=110/2;
 6/4=589840,7=2,8=2,9=2,10=2,19=2,28=1/1;
 99/4=589840,9=1/99;
 Leave Link    1 at Sun Aug  3 13:16:51 2008, MaxMem=  536870912 cpu:       1.3
 (Enter /usr/local/Chem-Apps/g03_d01/g03/l101.exe)
 ----------------------
 Molecule 14, geometry.
 ----------------------
 Symbolic Z-matrix:
 Charge = -1 Multiplicity = 1
 P                     2.41684  -0.01917  -0.20683 
 O                     3.70163   0.79827  -0.01429 
 O                     2.48847  -1.52766  -0.47159 
 N                     1.36811   0.75923  -1.33343 
 H                     1.52529   1.7668   -1.27562 
 S                     1.03725   0.31759   1.52846 
 C                    -0.02083   0.40059  -1.06338 
 H                    -0.68319   0.98804  -1.71133 
 H                    -0.15534  -0.65869  -1.31829 
 C                    -0.43969   0.61115   0.42478 
 H                    -0.75376   1.6507    0.58652 
 C                    -1.52657  -0.34499   0.87433 
 H                    -1.28251  -1.38526   0.63477 
 H                    -1.78848  -0.22715   1.92752 
 O                     5.51276  -1.56359  -0.25002 
 H                     4.6379   -1.96031  -0.39319 
 H                     5.26043  -0.63238  -0.12798 
 O                     2.90009   3.44006  -0.008 
 H                     3.31716   2.54489  -0.00269 
 H                     2.44485   3.46872   0.84188 
 O                     0.39465  -3.21076   0.12362 
 H                     1.14953  -2.62826  -0.13588 
 H                     0.56236  -3.37653   1.05807 
 O                    -2.77072  -0.0917    0.21643 
 H                    -3.48647  -0.48249   0.72298 
 
                    Isotopes and Nuclear Properties:
 (Nuclear quadrupole moments (NQMom) in fm**2, nuclear magnetic moments (NMagM)
  in nuclear magnetons)

  Atom         1           2           3           4           5           6           7           8           9          10
 IAtWgt=          31          16          16          14           1          32          12           1           1          12
 AtmWgt=  30.9737634  15.9949146  15.9949146  14.0030740   1.0078250  31.9720718  12.0000000   1.0078250   1.0078250  12.0000000
 NucSpn=           1           0           0           2           1           0           0           1           1           0
 AtZEff=   0.0000000   0.0000000   0.0000000   0.0000000   0.0000000   0.0000000   0.0000000   0.0000000   0.0000000   0.0000000
 NQMom=    0.0000000   0.0000000   0.0000000   2.0440000   0.0000000   0.0000000   0.0000000   0.0000000   0.0000000   0.0000000
 NMagM=    1.1316000   0.0000000   0.0000000   0.4037610   2.7928460   0.0000000   0.0000000   2.7928460   2.7928460   0.0000000

  Atom        11          12          13          14          15          16          17          18          19          20
 IAtWgt=           1          12           1           1          16           1           1          16           1           1
 AtmWgt=   1.0078250  12.0000000   1.0078250   1.0078250  15.9949146   1.0078250   1.0078250  15.9949146   1.0078250   1.0078250
 NucSpn=           1           0           1           1           0           1           1           0           1           1
 AtZEff=   0.0000000   0.0000000   0.0000000   0.0000000   0.0000000   0.0000000   0.0000000   0.0000000   0.0000000   0.0000000
 NQMom=    0.0000000   0.0000000   0.0000000   0.0000000   0.0000000   0.0000000   0.0000000   0.0000000   0.0000000   0.0000000
 NMagM=    2.7928460   0.0000000   2.7928460   2.7928460   0.0000000   2.7928460   2.7928460   0.0000000   2.7928460   2.7928460

  Atom        21          22          23          24          25
 IAtWgt=          16           1           1          16           1
 AtmWgt=  15.9949146   1.0078250   1.0078250  15.9949146   1.0078250
 NucSpn=           0           1           1           0           1
 AtZEff=   0.0000000   0.0000000   0.0000000   0.0000000   0.0000000
 NQMom=    0.0000000   0.0000000   0.0000000   0.0000000   0.0000000
 NMagM=    0.0000000   2.7928460   2.7928460   0.0000000   2.7928460
 Leave Link  101 at Sun Aug  3 13:16:52 2008, MaxMem=  536870912 cpu:       0.6
 (Enter /usr/local/Chem-Apps/g03_d01/g03/l103.exe)

 GradGradGradGradGradGradGradGradGradGradGradGradGradGradGradGradGradGrad
 Berny optimization.
 Initialization pass.
                           ----------------------------
                           !    Initial Parameters    !
                           ! (Angstroms and Degrees)  !
 --------------------------                            --------------------------
 ! Name  Definition              Value          Derivative Info.                !
 --------------------------------------------------------------------------------
 ! R1    R(1,2)                  1.5349         estimate D2E/DX2                !
 ! R2    R(1,3)                  1.5332         estimate D2E/DX2                !
 ! R3    R(1,4)                  1.7248         estimate D2E/DX2                !
 ! R4    R(1,6)                  2.2423         estimate D2E/DX2                !
 ! R5    R(2,17)                 2.1189         estimate D2E/DX2                !
 ! R6    R(2,19)                 1.7885         estimate D2E/DX2                !
 ! R7    R(3,16)                 2.1939         estimate D2E/DX2                !
 ! R8    R(3,22)                 1.7654         estimate D2E/DX2                !
 ! R9    R(4,5)                  1.0214         estimate D2E/DX2                !
 ! R10   R(4,7)                  1.4597         estimate D2E/DX2                !
 ! R11   R(6,10)                 1.867          estimate D2E/DX2                !
 ! R12   R(7,8)                  1.0971         estimate D2E/DX2                !
 ! R13   R(7,9)                  1.0978         estimate D2E/DX2                !
 ! R14   R(7,10)                 1.5603         estimate D2E/DX2                !
 ! R15   R(10,11)                1.0979         estimate D2E/DX2                !
 ! R16   R(10,12)                1.5158         estimate D2E/DX2                !
 ! R17   R(12,13)                1.095          estimate D2E/DX2                !
 ! R18   R(12,14)                1.0916         estimate D2E/DX2                !
 ! R19   R(12,24)                1.43           estimate D2E/DX2                !
 ! R20   R(15,16)                0.9712         estimate D2E/DX2                !
 ! R21   R(15,17)                0.9725         estimate D2E/DX2                !
 ! R22   R(18,19)                0.9876         estimate D2E/DX2                !
 ! R23   R(18,20)                0.9645         estimate D2E/DX2                !
 ! R24   R(21,22)                0.9882         estimate D2E/DX2                !
 ! R25   R(21,23)                0.9637         estimate D2E/DX2                !
 ! R26   R(24,25)                0.96           estimate D2E/DX2                !
 ! A1    A(2,1,3)              120.4326         estimate D2E/DX2                !
 ! A2    A(2,1,4)              110.5202         estimate D2E/DX2                !
 ! A3    A(2,1,6)              109.7512         estimate D2E/DX2                !
 ! A4    A(3,1,4)              111.0775         estimate D2E/DX2                !
 ! A5    A(3,1,6)              108.0679         estimate D2E/DX2                !
 ! A6    A(4,1,6)               93.6475         estimate D2E/DX2                !
 ! A7    A(1,2,17)             104.4467         estimate D2E/DX2                !
 ! A8    A(1,2,19)             109.936          estimate D2E/DX2                !
 ! A9    A(17,2,19)            144.875          estimate D2E/DX2                !
 ! A10   A(1,3,16)             103.5106         estimate D2E/DX2                !
 ! A11   A(1,3,22)             123.0302         estimate D2E/DX2                !
 ! A12   A(16,3,22)            127.8283         estimate D2E/DX2                !
 ! A13   A(1,4,5)              108.3397         estimate D2E/DX2                !
 ! A14   A(1,4,7)              110.2936         estimate D2E/DX2                !
 ! A15   A(5,4,7)              112.2304         estimate D2E/DX2                !
 ! A16   A(1,6,10)              93.029          estimate D2E/DX2                !
 ! A17   A(4,7,8)              109.4902         estimate D2E/DX2                !
 ! A18   A(4,7,9)              108.1023         estimate D2E/DX2                !
 ! A19   A(4,7,10)             113.4994         estimate D2E/DX2                !
 ! A20   A(8,7,9)              107.7917         estimate D2E/DX2                !
 ! A21   A(8,7,10)             109.206          estimate D2E/DX2                !
 ! A22   A(9,7,10)             108.5901         estimate D2E/DX2                !
 ! A23   A(6,10,7)             109.2841         estimate D2E/DX2                !
 ! A24   A(6,10,11)            106.7436         estimate D2E/DX2                !
 ! A25   A(6,10,12)            107.0212         estimate D2E/DX2                !
 ! A26   A(7,10,11)            110.1867         estimate D2E/DX2                !
 ! A27   A(7,10,12)            112.9696         estimate D2E/DX2                !
 ! A28   A(11,10,12)           110.3914         estimate D2E/DX2                !
 ! A29   A(10,12,13)           111.9957         estimate D2E/DX2                !
 ! A30   A(10,12,14)           112.9589         estimate D2E/DX2                !
 ! A31   A(10,12,24)           112.0658         estimate D2E/DX2                !
 ! A32   A(13,12,14)           111.5361         estimate D2E/DX2                !
 ! A33   A(13,12,24)           105.1612         estimate D2E/DX2                !
 ! A34   A(14,12,24)           102.4744         estimate D2E/DX2                !
 ! A35   A(16,15,17)           100.1317         estimate D2E/DX2                !
 ! A36   A(3,16,15)            143.8259         estimate D2E/DX2                !
 ! A37   A(2,17,15)            147.5828         estimate D2E/DX2                !
 ! A38   A(19,18,20)           102.7986         estimate D2E/DX2                !
 ! A39   A(2,19,18)            167.4143         estimate D2E/DX2                !
 ! A40   A(22,21,23)           102.8901         estimate D2E/DX2                !
 ! A41   A(12,24,25)           109.5            estimate D2E/DX2                !
 ! A42   L(3,22,21,23,-1)      176.2324         estimate D2E/DX2                !
 ! A43   L(3,22,21,23,-2)      175.8896         estimate D2E/DX2                !
 ! D1    D(3,1,2,17)            -2.2573         estimate D2E/DX2                !
 ! D2    D(3,1,2,19)           170.4395         estimate D2E/DX2                !
 ! D3    D(4,1,2,17)          -133.9574         estimate D2E/DX2                !
 ! D4    D(4,1,2,19)            38.7394         estimate D2E/DX2                !
 ! D5    D(6,1,2,17)           124.1214         estimate D2E/DX2                !
 ! D6    D(6,1,2,19)           -63.1818         estimate D2E/DX2                !
 ! D7    D(2,1,3,16)             1.9935         estimate D2E/DX2                !
 ! D8    D(2,1,3,22)           157.3008         estimate D2E/DX2                !
 ! D9    D(4,1,3,16)           133.4551         estimate D2E/DX2                !
 ! D10   D(4,1,3,22)           -71.2377         estimate D2E/DX2                !
 ! D11   D(6,1,3,16)          -125.1571         estimate D2E/DX2                !
 ! D12   D(6,1,3,22)            30.1502         estimate D2E/DX2                !
 ! D13   D(2,1,4,5)            -29.7822         estimate D2E/DX2                !
 ! D14   D(2,1,4,7)           -152.9801         estimate D2E/DX2                !
 ! D15   D(3,1,4,5)           -166.1577         estimate D2E/DX2                !
 ! D16   D(3,1,4,7)             70.6444         estimate D2E/DX2                !
 ! D17   D(6,1,4,5)             82.8879         estimate D2E/DX2                !
 ! D18   D(6,1,4,7)            -40.3101         estimate D2E/DX2                !
 ! D19   D(2,1,6,10)           132.4811         estimate D2E/DX2                !
 ! D20   D(3,1,6,10)           -94.4217         estimate D2E/DX2                !
 ! D21   D(4,1,6,10)            19.1469         estimate D2E/DX2                !
 ! D22   D(1,2,17,15)            0.3615         estimate D2E/DX2                !
 ! D23   D(19,2,17,15)        -167.651          estimate D2E/DX2                !
 ! D24   D(1,2,19,18)            4.454          estimate D2E/DX2                !
 ! D25   D(17,2,19,18)         172.0998         estimate D2E/DX2                !
 ! D26   D(1,3,16,15)            0.8584         estimate D2E/DX2                !
 ! D27   D(22,3,16,15)        -152.8193         estimate D2E/DX2                !
 ! D28   D(1,3,21,23)          -84.0414         estimate D2E/DX2                !
 ! D29   D(16,3,21,23)          62.9592         estimate D2E/DX2                !
 ! D30   D(1,4,7,8)            173.6582         estimate D2E/DX2                !
 ! D31   D(1,4,7,9)            -69.1671         estimate D2E/DX2                !
 ! D32   D(1,4,7,10)            51.3545         estimate D2E/DX2                !
 ! D33   D(5,4,7,8)             52.7578         estimate D2E/DX2                !
 ! D34   D(5,4,7,9)            169.9326         estimate D2E/DX2                !
 ! D35   D(5,4,7,10)           -69.5459         estimate D2E/DX2                !
 ! D36   D(1,6,10,7)             3.2941         estimate D2E/DX2                !
 ! D37   D(1,6,10,11)         -115.8521         estimate D2E/DX2                !
 ! D38   D(1,6,10,12)          125.9431         estimate D2E/DX2                !
 ! D39   D(4,7,10,6)           -31.7064         estimate D2E/DX2                !
 ! D40   D(4,7,10,11)           85.2832         estimate D2E/DX2                !
 ! D41   D(4,7,10,12)         -150.7275         estimate D2E/DX2                !
 ! D42   D(8,7,10,6)          -154.1675         estimate D2E/DX2                !
 ! D43   D(8,7,10,11)          -37.1779         estimate D2E/DX2                !
 ! D44   D(8,7,10,12)           86.8114         estimate D2E/DX2                !
 ! D45   D(9,7,10,6)            88.5392         estimate D2E/DX2                !
 ! D46   D(9,7,10,11)         -154.4712         estimate D2E/DX2                !
 ! D47   D(9,7,10,12)          -30.4819         estimate D2E/DX2                !
 ! D48   D(6,10,12,13)         -69.8094         estimate D2E/DX2                !
 ! D49   D(6,10,12,14)          57.1382         estimate D2E/DX2                !
 ! D50   D(6,10,12,24)         172.2794         estimate D2E/DX2                !
 ! D51   D(7,10,12,13)          50.514          estimate D2E/DX2                !
 ! D52   D(7,10,12,14)         177.4616         estimate D2E/DX2                !
 ! D53   D(7,10,12,24)         -67.3972         estimate D2E/DX2                !
 ! D54   D(11,10,12,13)        174.3908         estimate D2E/DX2                !
 ! D55   D(11,10,12,14)        -58.6616         estimate D2E/DX2                !
 ! D56   D(11,10,12,24)         56.4796         estimate D2E/DX2                !
 ! D57   D(10,12,24,25)       -160.3011         estimate D2E/DX2                !
 ! D58   D(13,12,24,25)         77.7911         estimate D2E/DX2                !
 ! D59   D(14,12,24,25)        -38.9183         estimate D2E/DX2                !
 ! D60   D(17,15,16,3)          -2.3302         estimate D2E/DX2                !
 ! D61   D(16,15,17,2)           1.7325         estimate D2E/DX2                !
 ! D62   D(20,18,19,2)          67.8819         estimate D2E/DX2                !
 --------------------------------------------------------------------------------
 Trust Radius=3.00D-01 FncErr=1.00D-07 GrdErr=1.00D-06
 Number of steps in this run= 141 maximum allowed number of steps= 150.
 GradGradGradGradGradGradGradGradGradGradGradGradGradGradGradGradGradGrad

 Leave Link  103 at Sun Aug  3 13:16:52 2008, MaxMem=  536870912 cpu:       0.5
 (Enter /usr/local/Chem-Apps/g03_d01/g03/l202.exe)
                          Input orientation:                          
 ---------------------------------------------------------------------
 Center     Atomic     Atomic              Coordinates (Angstroms)
 Number     Number      Type              X           Y           Z
 ---------------------------------------------------------------------
    1         15             0        2.416838   -0.019167   -0.206830
    2          8             0        3.701633    0.798274   -0.014285
    3          8             0        2.488474   -1.527661   -0.471594
    4          7             0        1.368111    0.759229   -1.333432
    5          1             0        1.525293    1.766800   -1.275624
    6         16             0        1.037251    0.317585    1.528459
    7          6             0       -0.020828    0.400586   -1.063382
    8          1             0       -0.683189    0.988039   -1.711328
    9          1             0       -0.155344   -0.658694   -1.318288
   10          6             0       -0.439685    0.611150    0.424775
   11          1             0       -0.753763    1.650701    0.586518
   12          6             0       -1.526574   -0.344992    0.874332
   13          1             0       -1.282510   -1.385261    0.634774
   14          1             0       -1.788483   -0.227145    1.927524
   15          8             0        5.512762   -1.563594   -0.250023
   16          1             0        4.637895   -1.960313   -0.393192
   17          1             0        5.260433   -0.632378   -0.127983
   18          8             0        2.900087    3.440055   -0.008003
   19          1             0        3.317160    2.544890   -0.002693
   20          1             0        2.444852    3.468723    0.841876
   21          8             0        0.394653   -3.210760    0.123617
   22          1             0        1.149527   -2.628257   -0.135883
   23          1             0        0.562360   -3.376526    1.058066
   24          8             0       -2.770722   -0.091696    0.216429
   25          1             0       -3.486469   -0.482486    0.722976
 ---------------------------------------------------------------------
                    Distance matrix (angstroms):
                    1          2          3          4          5
     1  P    0.000000
     2  O    1.534921   0.000000
     3  O    1.533227   2.662867   0.000000
     4  N    1.724807   2.680858   2.688465   0.000000
     5  H    2.264255   2.695454   3.525288   1.021395   0.000000
     6  S    2.242296   3.116096   3.084022   2.914608   3.193946
     7  C    2.617650   3.887863   3.219464   1.459693   2.074145
     8  H    3.590006   4.705596   4.233808   2.098331   2.381953
     9  H    2.874101   4.324286   2.908912   2.081262   2.951166
    10  C    2.992649   4.168729   3.735252   2.526133   2.843945
    11  H    3.670228   4.575822   4.661940   2.997212   2.945360
    12  C    4.101899   5.425020   4.396684   3.804304   4.289041
    13  H    4.032330   5.480035   3.932512   3.936809   4.633451
    14  H    4.720535   5.912992   5.073408   4.644443   5.021662
    15  O    3.460038   2.985663   3.032607   4.873132   5.295592
    16  H    2.955651   2.937679   2.193934   4.355622   4.935418
    17  H    2.910030   2.118856   2.933148   4.305792   4.585238
    18  O    3.498468   2.760710   5.006251   3.360140   2.509323
    19  H    2.725186   1.788469   4.182375   2.959433   2.331644
    20  H    3.642245   3.073078   5.166329   3.637677   2.868089
    21  O    3.792716   5.198797   2.751579   4.339519   5.292667
    22  H    2.901458   4.274242   1.765444   3.599578   4.555956
    23  H    4.038677   5.332347   3.077024   4.844891   5.729498
    24  O    5.205304   6.537328   5.494954   4.500676   4.912838
    25  H    5.994017   7.338440   6.182178   5.416421   5.845635
                    6          7          8          9         10
     6  S    0.000000
     7  C    2.800725   0.000000
     8  H    3.729027   1.097113   0.000000
     9  H    3.237186   1.097791   1.773367   0.000000
    10  C    1.866987   1.560253   2.182722   2.175229   0.000000
    11  H    2.423259   2.195940   2.392530   3.052818   1.097940
    12  C    2.727653   2.564740   3.028846   2.605046   1.515796
    13  H    3.013246   2.768542   3.390565   2.369146   2.177179
    14  H    2.905298   3.530463   3.992442   3.659054   2.186378
    15  O    5.170303   5.927915   6.858283   5.838447   6.373107
    16  H    4.673992   5.265615   6.224484   5.052243   5.750070
    17  H    4.634813   5.462024   6.360768   5.545102   5.860311
    18  O    3.947239   4.345566   4.664072   5.277523   4.398190
    19  H    3.536000   4.106734   4.620174   4.904286   4.246877
    20  H    3.518865   4.372991   4.738912   5.335063   4.081697
    21  O    3.851718   3.824057   4.707301   2.982386   3.923495
    22  H    3.385355   3.376962   4.349537   2.641959   3.651533
    23  H    3.754097   4.371181   5.316988   3.680865   4.160134
    24  O    4.048406   3.072812   3.039715   3.084971   2.443591
    25  H    4.664006   3.997694   3.993327   3.910780   3.250824
                   11         12         13         14         15
    11  H    0.000000
    12  C    2.159367   0.000000
    13  H    3.082039   1.095041   0.000000
    14  H    2.528883   1.091649   1.807884   0.000000
    15  O    7.092308   7.231972   6.854954   7.735372   0.000000
    16  H    6.562715   6.497427   6.036439   7.048966   0.971224
    17  H    6.472520   6.866636   6.630138   7.353675   0.972485
    18  O    4.111674   5.890707   6.418018   6.259178   5.649880
    19  H    4.209413   5.708095   6.083536   6.121887   4.664920
    20  H    3.688028   5.506151   6.123502   5.723565   5.994041
    21  O    5.016666   3.530908   2.531127   4.113651   5.389601
    22  H    4.738550   3.659966   2.837914   4.319131   4.492700
    23  H    5.218002   3.686136   2.747336   4.025049   5.431786
    24  O    2.690918   1.430000   2.015713   1.977622   8.426160
    25  H    3.469407   1.970533   2.383320   2.097448   9.116012
                   16         17         18         19         20
    16  H    0.000000
    17  H    1.490403   0.000000
    18  O    5.686152   4.708539   0.000000
    19  H    4.711017   3.726532   0.987572   0.000000
    20  H    5.984084   5.068249   0.964549   1.525675   0.000000
    21  O    4.453741   5.512456   7.108295   6.456354   7.023867
    22  H    3.561049   4.569808   6.317058   5.610510   6.309282
    23  H    4.552120   5.568568   7.284727   6.616442   7.102672
    24  O    7.664918   8.056700   6.684438   6.637915   6.345863
    25  H    8.332772   8.789476   7.530521   7.482043   7.127886
                   21         22         23         24         25
    21  O    0.000000
    22  H    0.988172   0.000000
    23  H    0.963742   1.526495   0.000000
    24  O    4.444859   4.682587   4.754776   0.000000
    25  H    4.781822   5.180196   4.988062   0.960000   0.000000
 Stoichiometry    C3H13NO6PS(1-)
 Framework group  C1[X(C3H13NO6PS)]
 Deg. of freedom    69
 Full point group                 C1
 Largest Abelian subgroup         C1      NOp   1
 Largest concise Abelian subgroup C1      NOp   1
                         Standard orientation:                         
 ---------------------------------------------------------------------
 Center     Atomic     Atomic              Coordinates (Angstroms)
 Number     Number      Type              X           Y           Z
 ---------------------------------------------------------------------
    1         15             0        1.082478    0.064537    0.181006
    2          8             0        2.393483   -0.664482   -0.144231
    3          8             0        1.074368    1.579291    0.418157
    4          7             0        0.223535   -0.762985    1.426954
    5          1             0        0.445362   -1.758006    1.363915
    6         16             0       -0.452870   -0.402415   -1.385056
    7          6             0       -1.208919   -0.508012    1.309624
    8          1             0       -1.751566   -1.127498    2.034489
    9          1             0       -1.390184    0.544074    1.565363
   10          6             0       -1.773660   -0.776866   -0.119773
   11          1             0       -2.028175   -1.838877   -0.233026
   12          6             0       -2.969513    0.091635   -0.456339
   13          1             0       -2.775839    1.150996   -0.257946
   14          1             0       -3.337208   -0.065127   -1.472176
   15          8             0        4.045110    1.822744   -0.140522
   16          1             0        3.165223    2.159917    0.094827
   17          1             0        3.848411    0.873896   -0.222514
   18          8             0        1.788120   -3.355558   -0.029474
   19          1             0        2.136621   -2.433639   -0.092013
   20          1             0        1.244878   -3.432902   -0.822734
   21          8             0       -1.187979    3.099345    0.040786
   22          1             0       -0.369123    2.576449    0.221176
   23          1             0       -1.137058    3.257911   -0.908457
   24          8             0       -4.111774   -0.235168    0.339487
   25          1             0       -4.905403    0.094372   -0.088480
 ---------------------------------------------------------------------
 Rotational constants (GHZ):      0.7888411      0.4442961      0.3337186
 Leave Link  202 at Sun Aug  3 13:16:52 2008, MaxMem=  536870912 cpu:       0.4
 (Enter /usr/local/Chem-Apps/g03_d01/g03/l301.exe)
 Standard basis: Aug-CC-pVDZ (5D, 7F)
 There are   401 symmetry adapted basis functions of A   symmetry.
 Integral buffers will be    131072 words long.
 Raffenetti 2 integral format.
 Two-electron integral symmetry is turned on.
   401 basis functions,   739 primitive gaussians,   425 cartesian basis functions
    59 alpha electrons       59 beta electrons
       nuclear repulsion energy      1068.0044838966 Hartrees.
 IExCor= 402 DFT=T Ex=B+HF Corr=LYP ExCW=0 ScaHFX=  0.200000
 ScaDFX=  0.800000  0.720000  1.000000  0.810000
 IRadAn=      5 IRanWt=     -1 IRanGd=            0 ICorTp=0
 NAtoms=   25 NActive=   25 NUniq=   25 SFac= 7.50D-01 NAtFMM=   80 NAOKFM=F Big=F
 Leave Link  301 at Sun Aug  3 13:16:52 2008, MaxMem=  536870912 cpu:       0.2
 (Enter /usr/local/Chem-Apps/g03_d01/g03/l302.exe)
 NPDir=0 NMtPBC=     1 NCelOv=     1 NCel=       1 NClECP=     1 NCelD=      1
         NCelK=      1 NCelE2=     1 NClLst=     1 CellRange=     0.0.
 One-electron integrals computed using PRISM.
 NBasis=   401 RedAO= T  NBF=   401
 NBsUse=   401 1.00D-06 NBFU=   401
 Precomputing XC quadrature grid using
 IXCGrd= 2 IRadAn=           5 IRanWt=          -1 IRanGd=           0.
 NRdTot=    2154 NPtTot=      581304 NUsed=      596483 NTot=      596515
 NSgBfM=   423   423   423   423.
 Leave Link  302 at Sun Aug  3 13:16:54 2008, MaxMem=  536870912 cpu:      14.4
 (Enter /usr/local/Chem-Apps/g03_d01/g03/l303.exe)
 DipDrv:  MaxL=1.
 Leave Link  303 at Sun Aug  3 13:16:54 2008, MaxMem=  536870912 cpu:       1.7
 (Enter /usr/local/Chem-Apps/g03_d01/g03/l401.exe)
 Harris functional with IExCor=  402 diagonalized for initial guess.
 ExpMin= 2.97D-02 ExpMax= 1.11D+05 ExpMxC= 3.24D+03 IAcc=3 IRadAn=         5 AccDes= 0.00D+00
 HarFok:  IExCor= 402 AccDes= 0.00D+00 IRadAn=         5 IDoV=1
 ScaDFX=  1.000000  1.000000  1.000000  1.000000
 Harris En= -1368.42646153394    
 Initial guess orbital symmetries:
       Occupied  (A) (A) (A) (A) (A) (A) (A) (A) (A) (A) (A) (A)
                 (A) (A) (A) (A) (A) (A) (A) (A) (A) (A) (A) (A)
                 (A) (A) (A) (A) (A) (A) (A) (A) (A) (A) (A) (A)
                 (A) (A) (A) (A) (A) (A) (A) (A) (A) (A) (A) (A)
                 (A) (A) (A) (A) (A) (A) (A) (A) (A) (A) (A)
       Virtual   (A) (A) (A) (A) (A) (A) (A) (A) (A) (A) (A) (A)
                 (A) (A) (A) (A) (A) (A) (A) (A) (A) (A) (A) (A)
                 (A) (A) (A) (A) (A) (A) (A) (A) (A) (A) (A) (A)
                 (A) (A) (A) (A) (A) (A) (A) (A) (A) (A) (A) (A)
                 (A) (A) (A) (A) (A) (A) (A) (A) (A) (A) (A) (A)
                 (A) (A) (A) (A) (A) (A) (A) (A) (A) (A) (A) (A)
                 (A) (A) (A) (A) (A) (A) (A) (A) (A) (A) (A) (A)
                 (A) (A) (A) (A) (A) (A) (A) (A) (A) (A) (A) (A)
                 (A) (A) (A) (A) (A) (A) (A) (A) (A) (A) (A) (A)
                 (A) (A) (A) (A) (A) (A) (A) (A) (A) (A) (A) (A)
                 (A) (A) (A) (A) (A) (A) (A) (A) (A) (A) (A) (A)
                 (A) (A) (A) (A) (A) (A) (A) (A) (A) (A) (A) (A)
                 (A) (A) (A) (A) (A) (A) (A) (A) (A) (A) (A) (A)
                 (A) (A) (A) (A) (A) (A) (A) (A) (A) (A) (A) (A)
                 (A) (A) (A) (A) (A) (A) (A) (A) (A) (A) (A) (A)
                 (A) (A) (A) (A) (A) (A) (A) (A) (A) (A) (A) (A)
                 (A) (A) (A) (A) (A) (A) (A) (A) (A) (A) (A) (A)
                 (A) (A) (A) (A) (A) (A) (A) (A) (A) (A) (A) (A)
                 (A) (A) (A) (A) (A) (A) (A) (A) (A) (A) (A) (A)
                 (A) (A) (A) (A) (A) (A) (A) (A) (A) (A) (A) (A)
                 (A) (A) (A) (A) (A) (A) (A) (A) (A) (A) (A) (A)
                 (A) (A) (A) (A) (A) (A) (A) (A) (A) (A) (A) (A)
                 (A) (A) (A) (A) (A) (A) (A) (A) (A) (A) (A) (A)
                 (A) (A) (A) (A) (A) (A) (A) (A) (A) (A) (A) (A)
                 (A) (A) (A) (A) (A) (A) (A) (A) (A) (A) (A) (A)
                 (A) (A) (A) (A) (A) (A) (A) (A) (A) (A) (A) (A)
                 (A) (A) (A) (A) (A) (A) (A) (A) (A) (A) (A) (A)
                 (A) (A) (A) (A) (A) (A) (A) (A) (A) (A) (A) (A)
                 (A) (A) (A) (A) (A) (A)
 The electronic state of the initial guess is 1-A.
 Leave Link  401 at Sun Aug  3 13:16:58 2008, MaxMem=  536870912 cpu:      56.9
 (Enter /usr/local/Chem-Apps/g03_d01/g03/l502.exe)
 Closed shell SCF:
 Requested convergence on RMS density matrix=1.00D-08 within 128 cycles.
 Requested convergence on MAX density matrix=1.00D-06.
 Requested convergence on             energy=1.00D-06.
 No special actions if energy rises.
 Using DIIS extrapolation, IDIIS=  1040.
 Integral symmetry usage will be decided dynamically.
       596482 words used for storage of precomputed grid.
 IEnd=   1255543 IEndB=   1255543 NGot= 536870912 MDV= 535813060
 LenX= 535813060
 Fock matrices will be formed incrementally for  20 cycles.

 Cycle   1  Pass 1  IDiag  1:
 Petite list used in FoFDir.
 MinBra= 0 MaxBra= 2 Meth= 1.
 IRaf=       0 NMat=   1 IRICut=       1 DoRegI=T DoRafI=F ISym2E= 1 JSym2E=1.
 E= -1367.46258915901    
 DIIS: error= 2.27D-02 at cycle   1 NSaved=   1.
 NSaved= 1 IEnMin= 1 EnMin= -1367.46258915901     IErMin= 1 ErrMin= 2.27D-02
 ErrMax= 2.27D-02 EMaxC= 1.00D-01 BMatC= 8.30D-01 BMatP= 8.30D-01
 IDIUse=3 WtCom= 7.73D-01 WtEn= 2.27D-01
 Coeff-Com:  0.100D+01
 Coeff-En:   0.100D+01
 Coeff:      0.100D+01
 Gap=     0.285 Goal=   None    Shift=    0.000
 GapD=    0.285 DampG=1.000 DampE=0.500 DampFc=0.5000 IDamp=-1.
 Damping current iteration by 5.00D-01
 RMSDP=9.60D-03 MaxDP=1.03D+00              OVMax= 3.18D-01

 Cycle   2  Pass 1  IDiag  1:
 RMSU=  4.79D-03    CP:  9.88D-01
 E= -1367.54479495808     Delta-E=       -0.082205799075 Rises=F Damp=T
 DIIS: error= 8.00D-03 at cycle   2 NSaved=   2.
 NSaved= 2 IEnMin= 2 EnMin= -1367.54479495808     IErMin= 2 ErrMin= 8.00D-03
 ErrMax= 8.00D-03 EMaxC= 1.00D-01 BMatC= 1.30D-01 BMatP= 8.30D-01
 IDIUse=3 WtCom= 9.20D-01 WtEn= 8.00D-02
 Coeff-Com:  0.266D+00 0.734D+00
 Coeff-En:   0.446D+00 0.554D+00
 Coeff:      0.281D+00 0.719D+00
 Gap=     0.218 Goal=   None    Shift=    0.000
 RMSDP=3.94D-03 MaxDP=4.38D-01 DE=-8.22D-02 OVMax= 2.11D-01

 Cycle   3  Pass 1  IDiag  1:
 RMSU=  2.64D-03    CP:  9.21D-01  4.59D-01
 E= -1368.08398039649     Delta-E=       -0.539185438412 Rises=F Damp=F
 DIIS: error= 4.10D-03 at cycle   3 NSaved=   3.
 NSaved= 3 IEnMin= 3 EnMin= -1368.08398039649     IErMin= 3 ErrMin= 4.10D-03
 ErrMax= 4.10D-03 EMaxC= 1.00D-01 BMatC= 3.06D-02 BMatP= 1.30D-01
 IDIUse=3 WtCom= 9.59D-01 WtEn= 4.10D-02
 Coeff-Com:  0.114D+00 0.404D+00 0.482D+00
 Coeff-En:   0.000D+00 0.000D+00 0.100D+01
 Coeff:      0.109D+00 0.388D+00 0.503D+00
 Gap=     0.182 Goal=   None    Shift=    0.000
 RMSDP=1.51D-03 MaxDP=1.83D-01 DE=-5.39D-01 OVMax= 5.37D-02

 Cycle   4  Pass 1  IDiag  1:
 RMSU=  1.08D-03    CP:  9.43D-01  6.05D-01  7.52D-01
 E= -1368.11105226053     Delta-E=       -0.027071864035 Rises=F Damp=F
 DIIS: error= 1.47D-03 at cycle   4 NSaved=   4.
 NSaved= 4 IEnMin= 4 EnMin= -1368.11105226053     IErMin= 4 ErrMin= 1.47D-03
 ErrMax= 1.47D-03 EMaxC= 1.00D-01 BMatC= 4.93D-03 BMatP= 3.06D-02
 IDIUse=3 WtCom= 9.85D-01 WtEn= 1.47D-02
 Coeff-Com:  0.148D-01 0.121D+00 0.292D+00 0.571D+00
 Coeff-En:   0.000D+00 0.000D+00 0.669D-01 0.933D+00
 Coeff:      0.146D-01 0.120D+00 0.289D+00 0.577D+00
 Gap=     0.180 Goal=   None    Shift=    0.000
 RMSDP=3.17D-04 MaxDP=3.43D-02 DE=-2.71D-02 OVMax= 1.28D-02

 Cycle   5  Pass 1  IDiag  1:
 RMSU=  2.52D-04    CP:  9.41D-01  6.02D-01  7.58D-01  8.26D-01
 E= -1368.11455922294     Delta-E=       -0.003506962414 Rises=F Damp=F
 DIIS: error= 5.22D-04 at cycle   5 NSaved=   5.
 NSaved= 5 IEnMin= 5 EnMin= -1368.11455922294     IErMin= 5 ErrMin= 5.22D-04
 ErrMax= 5.22D-04 EMaxC= 1.00D-01 BMatC= 6.53D-04 BMatP= 4.93D-03
 IDIUse=3 WtCom= 9.95D-01 WtEn= 5.22D-03
 Coeff-Com: -0.533D-02 0.259D-01 0.106D+00 0.336D+00 0.538D+00
 Coeff-En:   0.000D+00 0.000D+00 0.000D+00 0.746D-01 0.925D+00
 Coeff:     -0.531D-02 0.257D-01 0.105D+00 0.334D+00 0.540D+00
 Gap=     0.173 Goal=   None    Shift=    0.000
 RMSDP=1.33D-04 MaxDP=1.33D-02 DE=-3.51D-03 OVMax= 5.60D-03

 Cycle   6  Pass 1  IDiag  1:
 RMSU=  1.12D-04    CP:  9.40D-01  6.02D-01  7.75D-01  7.86D-01  9.32D-01
 E= -1368.11509867972     Delta-E=       -0.000539456779 Rises=F Damp=F
 DIIS: error= 1.30D-04 at cycle   6 NSaved=   6.
 NSaved= 6 IEnMin= 6 EnMin= -1368.11509867972     IErMin= 6 ErrMin= 1.30D-04
 ErrMax= 1.30D-04 EMaxC= 1.00D-01 BMatC= 4.17D-05 BMatP= 6.53D-04
 IDIUse=3 WtCom= 9.99D-01 WtEn= 1.30D-03
 Coeff-Com: -0.389D-02 0.403D-02 0.300D-01 0.123D+00 0.277D+00 0.570D+00
 Coeff-En:   0.000D+00 0.000D+00 0.000D+00 0.000D+00 0.000D+00 0.100D+01
 Coeff:     -0.389D-02 0.403D-02 0.300D-01 0.123D+00 0.276D+00 0.571D+00
 Gap=     0.174 Goal=   None    Shift=    0.000
 RMSDP=3.96D-05 MaxDP=2.24D-03 DE=-5.39D-04 OVMax= 1.58D-03

 Cycle   7  Pass 1  IDiag  1:
 RMSU=  3.35D-05    CP:  9.40D-01  6.03D-01  7.76D-01  8.01D-01  9.20D-01
                    CP:  8.98D-01
 E= -1368.11512791969     Delta-E=       -0.000029239970 Rises=F Damp=F
 DIIS: error= 1.11D-04 at cycle   7 NSaved=   7.
 NSaved= 7 IEnMin= 7 EnMin= -1368.11512791969     IErMin= 7 ErrMin= 1.11D-04
 ErrMax= 1.11D-04 EMaxC= 1.00D-01 BMatC= 1.13D-05 BMatP= 4.17D-05
 IDIUse=3 WtCom= 9.99D-01 WtEn= 1.11D-03
 Coeff-Com: -0.195D-02 0.671D-04 0.921D-02 0.471D-01 0.128D+00 0.383D+00
 Coeff-Com:  0.434D+00
 Coeff-En:   0.000D+00 0.000D+00 0.000D+00 0.000D+00 0.000D+00 0.179D+00
 Coeff-En:   0.821D+00
 Coeff:     -0.194D-02 0.671D-04 0.920D-02 0.470D-01 0.128D+00 0.383D+00
 Coeff:      0.435D+00
 Gap=     0.174 Goal=   None    Shift=    0.000
 RMSDP=1.10D-05 MaxDP=6.38D-04 DE=-2.92D-05 OVMax= 6.51D-04

 Cycle   8  Pass 1  IDiag  1:
 RMSU=  9.25D-06    CP:  9.40D-01  6.03D-01  7.76D-01  8.03D-01  9.25D-01
                    CP:  8.98D-01  8.55D-01
 E= -1368.11513668204     Delta-E=       -0.000008762343 Rises=F Damp=F
 DIIS: error= 2.03D-05 at cycle   8 NSaved=   8.
 NSaved= 8 IEnMin= 8 EnMin= -1368.11513668204     IErMin= 8 ErrMin= 2.03D-05
 ErrMax= 2.03D-05 EMaxC= 1.00D-01 BMatC= 5.16D-07 BMatP= 1.13D-05
 IDIUse=1 WtCom= 1.00D+00 WtEn= 0.00D+00
 Coeff-Com: -0.445D-03-0.518D-03 0.971D-03 0.868D-02 0.318D-01 0.130D+00
 Coeff-Com:  0.224D+00 0.605D+00
 Coeff:     -0.445D-03-0.518D-03 0.971D-03 0.868D-02 0.318D-01 0.130D+00
 Coeff:      0.224D+00 0.605D+00
 Gap=     0.174 Goal=   None    Shift=    0.000
 RMSDP=4.02D-06 MaxDP=2.52D-04 DE=-8.76D-06 OVMax= 1.74D-04

 Cycle   9  Pass 1  IDiag  1:
 RMSU=  2.92D-06    CP:  9.40D-01  6.03D-01  7.76D-01  8.02D-01  9.29D-01
                    CP:  9.08D-01  8.29D-01  8.55D-01
 E= -1368.11513709080     Delta-E=       -0.000000408765 Rises=F Damp=F
 DIIS: error= 6.00D-06 at cycle   9 NSaved=   9.
 NSaved= 9 IEnMin= 9 EnMin= -1368.11513709080     IErMin= 9 ErrMin= 6.00D-06
 ErrMax= 6.00D-06 EMaxC= 1.00D-01 BMatC= 5.25D-08 BMatP= 5.16D-07
 IDIUse=1 WtCom= 1.00D+00 WtEn= 0.00D+00
 Coeff-Com: -0.568D-04-0.260D-03-0.157D-03 0.957D-03 0.624D-02 0.358D-01
 Coeff-Com:  0.809D-01 0.312D+00 0.565D+00
 Coeff:     -0.568D-04-0.260D-03-0.157D-03 0.957D-03 0.624D-02 0.358D-01
 Coeff:      0.809D-01 0.312D+00 0.565D+00
 Gap=     0.174 Goal=   None    Shift=    0.000
 RMSDP=1.36D-06 MaxDP=1.07D-04 DE=-4.09D-07 OVMax= 4.36D-05

 Cycle  10  Pass 1  IDiag  1:
 RMSU=  1.05D-06    CP:  9.40D-01  6.03D-01  7.76D-01  8.02D-01  9.29D-01
                    CP:  9.10D-01  8.24D-01  8.41D-01  8.37D-01
 E= -1368.11513713331     Delta-E=       -0.000000042508 Rises=F Damp=F
 DIIS: error= 2.20D-06 at cycle  10 NSaved=  10.
 NSaved=10 IEnMin=10 EnMin= -1368.11513713331     IErMin=10 ErrMin= 2.20D-06
 ErrMax= 2.20D-06 EMaxC= 1.00D-01 BMatC= 6.65D-09 BMatP= 5.25D-08
 IDIUse=1 WtCom= 1.00D+00 WtEn= 0.00D+00
 Coeff-Com:  0.156D-04-0.876D-04-0.194D-03-0.314D-03 0.240D-03 0.614D-02
 Coeff-Com:  0.213D-01 0.105D+00 0.312D+00 0.556D+00
 Coeff:      0.156D-04-0.876D-04-0.194D-03-0.314D-03 0.240D-03 0.614D-02
 Coeff:      0.213D-01 0.105D+00 0.312D+00 0.556D+00
 Gap=     0.174 Goal=   None    Shift=    0.000
 RMSDP=4.13D-07 MaxDP=2.37D-05 DE=-4.25D-08 OVMax= 1.72D-05

 Cycle  11  Pass 1  IDiag  1:
 RMSU=  2.58D-07    CP:  9.40D-01  6.03D-01  7.76D-01  8.02D-01  9.29D-01
                    CP:  9.10D-01  8.31D-01  8.51D-01  8.48D-01  8.37D-01
 E= -1368.11513713880     Delta-E=       -0.000000005493 Rises=F Damp=F
 DIIS: error= 3.23D-07 at cycle  11 NSaved=  11.
 NSaved=11 IEnMin=11 EnMin= -1368.11513713880     IErMin=11 ErrMin= 3.23D-07
 ErrMax= 3.23D-07 EMaxC= 1.00D-01 BMatC= 2.92D-10 BMatP= 6.65D-09
 IDIUse=1 WtCom= 1.00D+00 WtEn= 0.00D+00
 Coeff-Com:  0.101D-04-0.188D-04-0.868D-04-0.239D-03-0.470D-03-0.413D-03
 Coeff-Com:  0.238D-02 0.200D-01 0.899D-01 0.240D+00 0.649D+00
 Coeff:      0.101D-04-0.188D-04-0.868D-04-0.239D-03-0.470D-03-0.413D-03
 Coeff:      0.238D-02 0.200D-01 0.899D-01 0.240D+00 0.649D+00
 Gap=     0.174 Goal=   None    Shift=    0.000
 RMSDP=1.51D-07 MaxDP=1.80D-05 DE=-5.49D-09 OVMax= 3.41D-06

 Cycle  12  Pass 1  IDiag  1:
 RMSU=  9.13D-08    CP:  9.40D-01  6.03D-01  7.76D-01  8.02D-01  9.30D-01
                    CP:  9.10D-01  8.30D-01  8.53D-01  8.61D-01  8.14D-01
                    CP:  9.61D-01
 E= -1368.11513713904     Delta-E=       -0.000000000236 Rises=F Damp=F
 DIIS: error= 1.40D-07 at cycle  12 NSaved=  12.
 NSaved=12 IEnMin=12 EnMin= -1368.11513713904     IErMin=12 ErrMin= 1.40D-07
 ErrMax= 1.40D-07 EMaxC= 1.00D-01 BMatC= 4.19D-11 BMatP= 2.92D-10
 IDIUse=1 WtCom= 1.00D+00 WtEn= 0.00D+00
 Coeff-Com:  0.164D-05 0.305D-06-0.196D-04-0.580D-04-0.175D-03-0.572D-03
 Coeff-Com: -0.680D-03 0.110D-03 0.121D-01 0.614D-01 0.325D+00 0.603D+00
 Coeff:      0.164D-05 0.305D-06-0.196D-04-0.580D-04-0.175D-03-0.572D-03
 Coeff:     -0.680D-03 0.110D-03 0.121D-01 0.614D-01 0.325D+00 0.603D+00
 Gap=     0.174 Goal=   None    Shift=    0.000
 RMSDP=3.90D-08 MaxDP=4.57D-06 DE=-2.36D-10 OVMax= 1.35D-06

 Cycle  13  Pass 1  IDiag  1:
 RMSU=  2.40D-08    CP:  9.40D-01  6.03D-01  7.76D-01  8.02D-01  9.30D-01
                    CP:  9.10D-01  8.30D-01  8.53D-01  8.62D-01  8.25D-01
                    CP:  9.55D-01  8.64D-01
 E= -1368.11513713904     Delta-E=       -0.000000000005 Rises=F Damp=F
 DIIS: error= 3.48D-08 at cycle  13 NSaved=  13.
 NSaved=13 IEnMin=13 EnMin= -1368.11513713904     IErMin=13 ErrMin= 3.48D-08
 ErrMax= 3.48D-08 EMaxC= 1.00D-01 BMatC= 2.84D-12 BMatP= 4.19D-11
 IDIUse=1 WtCom= 1.00D+00 WtEn= 0.00D+00
 Coeff-Com: -0.205D-06 0.173D-05-0.343D-05-0.130D-04-0.555D-04-0.264D-03
 Coeff-Com: -0.569D-03-0.166D-02-0.206D-02 0.871D-02 0.977D-01 0.272D+00
 Coeff-Com:  0.626D+00
 Coeff:     -0.205D-06 0.173D-05-0.343D-05-0.130D-04-0.555D-04-0.264D-03
 Coeff:     -0.569D-03-0.166D-02-0.206D-02 0.871D-02 0.977D-01 0.272D+00
 Coeff:      0.626D+00
 Gap=     0.174 Goal=   None    Shift=    0.000
 RMSDP=1.09D-08 MaxDP=7.18D-07 DE=-5.00D-12 OVMax= 3.96D-07

 Cycle  14  Pass 1  IDiag  1:
 RMSU=  7.15D-09    CP:  9.40D-01  6.03D-01  7.76D-01  8.02D-01  9.30D-01
                    CP:  9.10D-01  8.30D-01  8.53D-01  8.61D-01  8.29D-01
                    CP:  9.68D-01  8.49D-01  8.21D-01
 E= -1368.11513713926     Delta-E=       -0.000000000213 Rises=F Damp=F
 DIIS: error= 1.03D-08 at cycle  14 NSaved=  14.
 NSaved=14 IEnMin=14 EnMin= -1368.11513713926     IErMin=14 ErrMin= 1.03D-08
 ErrMax= 1.03D-08 EMaxC= 1.00D-01 BMatC= 3.09D-13 BMatP= 2.84D-12
 IDIUse=1 WtCom= 1.00D+00 WtEn= 0.00D+00
 Coeff-Com: -0.236D-06 0.837D-06-0.567D-06-0.324D-05-0.167D-04-0.884D-04
 Coeff-Com: -0.228D-03-0.769D-03-0.182D-02-0.208D-03 0.235D-01 0.854D-01
 Coeff-Com:  0.315D+00 0.579D+00
 Coeff:     -0.236D-06 0.837D-06-0.567D-06-0.324D-05-0.167D-04-0.884D-04
 Coeff:     -0.228D-03-0.769D-03-0.182D-02-0.208D-03 0.235D-01 0.854D-01
 Coeff:      0.315D+00 0.579D+00
 Gap=     0.174 Goal=   None    Shift=    0.000
 RMSDP=2.73D-09 MaxDP=1.12D-07 DE=-2.13D-10 OVMax= 1.83D-07

 SCF Done:  E(RB+HF-LYP) =  -1368.11513714     A.U. after   14 cycles
             Convg  =    0.2726D-08             -V/T =  2.0044
             S**2   =   0.0000
 KE= 1.362174277620D+03 PE=-5.387939769159D+03 EE= 1.589645870503D+03
 Leave Link  502 at Sun Aug  3 13:22:00 2008, MaxMem=  536870912 cpu:    3389.9
 (Enter /usr/local/Chem-Apps/g03_d01/g03/l601.exe)
 Copying SCF densities to generalized density rwf, ISCF=0 IROHF=0.

 **********************************************************************

            Population analysis using the SCF density.

 **********************************************************************

 Orbital symmetries:
       Occupied  (A) (A) (A) (A) (A) (A) (A) (A) (A) (A) (A) (A)
                 (A) (A) (A) (A) (A) (A) (A) (A) (A) (A) (A) (A)
                 (A) (A) (A) (A) (A) (A) (A) (A) (A) (A) (A) (A)
                 (A) (A) (A) (A) (A) (A) (A) (A) (A) (A) (A) (A)
                 (A) (A) (A) (A) (A) (A) (A) (A) (A) (A) (A)
       Virtual   (A) (A) (A) (A) (A) (A) (A) (A) (A) (A) (A) (A)
                 (A) (A) (A) (A) (A) (A) (A) (A) (A) (A) (A) (A)
                 (A) (A) (A) (A) (A) (A) (A) (A) (A) (A) (A) (A)
                 (A) (A) (A) (A) (A) (A) (A) (A) (A) (A) (A) (A)
                 (A) (A) (A) (A) (A) (A) (A) (A) (A) (A) (A) (A)
                 (A) (A) (A) (A) (A) (A) (A) (A) (A) (A) (A) (A)
                 (A) (A) (A) (A) (A) (A) (A) (A) (A) (A) (A) (A)
                 (A) (A) (A) (A) (A) (A) (A) (A) (A) (A) (A) (A)
                 (A) (A) (A) (A) (A) (A) (A) (A) (A) (A) (A) (A)
                 (A) (A) (A) (A) (A) (A) (A) (A) (A) (A) (A) (A)
                 (A) (A) (A) (A) (A) (A) (A) (A) (A) (A) (A) (A)
                 (A) (A) (A) (A) (A) (A) (A) (A) (A) (A) (A) (A)
                 (A) (A) (A) (A) (A) (A) (A) (A) (A) (A) (A) (A)
                 (A) (A) (A) (A) (A) (A) (A) (A) (A) (A) (A) (A)
                 (A) (A) (A) (A) (A) (A) (A) (A) (A) (A) (A) (A)
                 (A) (A) (A) (A) (A) (A) (A) (A) (A) (A) (A) (A)
                 (A) (A) (A) (A) (A) (A) (A) (A) (A) (A) (A) (A)
                 (A) (A) (A) (A) (A) (A) (A) (A) (A) (A) (A) (A)
                 (A) (A) (A) (A) (A) (A) (A) (A) (A) (A) (A) (A)
                 (A) (A) (A) (A) (A) (A) (A) (A) (A) (A) (A) (A)
                 (A) (A) (A) (A) (A) (A) (A) (A) (A) (A) (A) (A)
                 (A) (A) (A) (A) (A) (A) (A) (A) (A) (A) (A) (A)
                 (A) (A) (A) (A) (A) (A) (A) (A) (A) (A) (A) (A)
                 (A) (A) (A) (A) (A) (A) (A) (A) (A) (A) (A) (A)
                 (A) (A) (A) (A) (A) (A) (A) (A) (A) (A) (A) (A)
                 (A) (A) (A) (A) (A) (A) (A) (A) (A) (A) (A) (A)
                 (A) (A) (A) (A) (A) (A) (A) (A) (A) (A) (A) (A)
                 (A) (A) (A) (A) (A) (A) (A) (A) (A) (A) (A) (A)
                 (A) (A) (A) (A) (A) (A)
 The electronic state is 1-A.
 Alpha  occ. eigenvalues --  -88.75126 -77.08588 -19.05655 -19.01847 -19.01157
 Alpha  occ. eigenvalues --  -18.99449 -18.98703 -18.98410 -14.21820 -10.13265
 Alpha  occ. eigenvalues --  -10.11782 -10.11566  -7.81200  -6.53480  -5.77574
 Alpha  occ. eigenvalues --   -5.77256  -5.76679  -4.69845  -4.69707  -4.69643
 Alpha  occ. eigenvalues --   -0.93610  -0.88289  -0.87538  -0.86883  -0.85472
 Alpha  occ. eigenvalues --   -0.81287  -0.79172  -0.68758  -0.58544  -0.56706
 Alpha  occ. eigenvalues --   -0.47545  -0.43719  -0.42035  -0.39669  -0.39069
 Alpha  occ. eigenvalues --   -0.37795  -0.36835  -0.36305  -0.34572  -0.31219
 Alpha  occ. eigenvalues --   -0.30752  -0.28512  -0.27414  -0.26497  -0.26105
 Alpha  occ. eigenvalues --   -0.25278  -0.25100  -0.24297  -0.21799  -0.19325
 Alpha  occ. eigenvalues --   -0.19111  -0.17846  -0.17555  -0.17170  -0.16619
 Alpha  occ. eigenvalues --   -0.16311  -0.15374  -0.14494  -0.11505
 Alpha virt. eigenvalues --    0.05875   0.08174   0.08965   0.09494   0.10498
 Alpha virt. eigenvalues --    0.11376   0.11839   0.12061   0.12842   0.13461
 Alpha virt. eigenvalues --    0.13693   0.13945   0.14511   0.15531   0.15912
 Alpha virt. eigenvalues --    0.16510   0.17065   0.17564   0.17911   0.18189
 Alpha virt. eigenvalues --    0.18585   0.18935   0.19509   0.19956   0.20058
 Alpha virt. eigenvalues --    0.20429   0.21114   0.21624   0.22081   0.22651
 Alpha virt. eigenvalues --    0.23251   0.23694   0.24659   0.25015   0.25229
 Alpha virt. eigenvalues --    0.25376   0.26077   0.26392   0.26834   0.27278
 Alpha virt. eigenvalues --    0.27327   0.28061   0.28755   0.28906   0.29155
 Alpha virt. eigenvalues --    0.29795   0.30311   0.30935   0.30972   0.31019
 Alpha virt. eigenvalues --    0.31534   0.32159   0.32683   0.32914   0.33104
 Alpha virt. eigenvalues --    0.33484   0.33993   0.34356   0.35191   0.35272
 Alpha virt. eigenvalues --    0.35772   0.36019   0.36495   0.36691   0.37252
 Alpha virt. eigenvalues --    0.37430   0.37818   0.38636   0.38955   0.39418
 Alpha virt. eigenvalues --    0.39775   0.41031   0.41382   0.41969   0.42184
 Alpha virt. eigenvalues --    0.42569   0.43338   0.44004   0.44737   0.45419
 Alpha virt. eigenvalues --    0.45839   0.46265   0.46961   0.47205   0.47872
 Alpha virt. eigenvalues --    0.48654   0.49159   0.49735   0.50138   0.50478
 Alpha virt. eigenvalues --    0.51534   0.51839   0.52288   0.53003   0.53901
 Alpha virt. eigenvalues --    0.54319   0.54546   0.55337   0.56569   0.56912
 Alpha virt. eigenvalues --    0.57638   0.58153   0.59079   0.59154   0.59703
 Alpha virt. eigenvalues --    0.60305   0.61230   0.62238   0.62800   0.63053
 Alpha virt. eigenvalues --    0.63649   0.63983   0.65102   0.65633   0.65789
 Alpha virt. eigenvalues --    0.66268   0.66826   0.67596   0.68123   0.69059
 Alpha virt. eigenvalues --    0.69673   0.70365   0.71730   0.71933   0.73015
 Alpha virt. eigenvalues --    0.73179   0.74365   0.74841   0.75973   0.76271
 Alpha virt. eigenvalues --    0.76968   0.77935   0.78989   0.80215   0.80327
 Alpha virt. eigenvalues --    0.80419   0.81652   0.82069   0.83388   0.84038
 Alpha virt. eigenvalues --    0.84550   0.85496   0.86209   0.86331   0.86770
 Alpha virt. eigenvalues --    0.88962   0.89578   0.90456   0.91187   0.92059
 Alpha virt. eigenvalues --    0.93590   0.94128   0.95036   0.96041   0.96444
 Alpha virt. eigenvalues --    0.97121   0.99395   0.99586   1.00170   1.01141
 Alpha virt. eigenvalues --    1.01820   1.02739   1.03444   1.04181   1.05550
 Alpha virt. eigenvalues --    1.06596   1.07130   1.07602   1.08563   1.09203
 Alpha virt. eigenvalues --    1.09846   1.10465   1.11835   1.12764   1.13692
 Alpha virt. eigenvalues --    1.14467   1.15121   1.15696   1.16690   1.16994
 Alpha virt. eigenvalues --    1.18073   1.18647   1.19820   1.20582   1.21840
 Alpha virt. eigenvalues --    1.22423   1.23523   1.24226   1.24830   1.26309
 Alpha virt. eigenvalues --    1.27020   1.27748   1.29208   1.29736   1.31278
 Alpha virt. eigenvalues --    1.32560   1.33309   1.34272   1.35983   1.36474
 Alpha virt. eigenvalues --    1.38136   1.38889   1.39377   1.40299   1.41434
 Alpha virt. eigenvalues --    1.42378   1.43422   1.44774   1.45770   1.47630
 Alpha virt. eigenvalues --    1.49138   1.50001   1.51262   1.53114   1.53618
 Alpha virt. eigenvalues --    1.54971   1.55413   1.56627   1.57453   1.57889
 Alpha virt. eigenvalues --    1.60686   1.62726   1.64539   1.66350   1.66726
 Alpha virt. eigenvalues --    1.67959   1.69855   1.70681   1.72478   1.74784
 Alpha virt. eigenvalues --    1.75040   1.78068   1.78160   1.79848   1.81062
 Alpha virt. eigenvalues --    1.83460   1.84160   1.84987   1.87097   1.88506
 Alpha virt. eigenvalues --    1.90149   1.91314   1.91961   1.93379   1.93957
 Alpha virt. eigenvalues --    1.94376   1.95297   1.97671   1.98457   1.99641
 Alpha virt. eigenvalues --    2.01027   2.02827   2.03633   2.04593   2.04984
 Alpha virt. eigenvalues --    2.05996   2.08869   2.10289   2.11243   2.13448
 Alpha virt. eigenvalues --    2.14133   2.16261   2.17273   2.19916   2.21176
 Alpha virt. eigenvalues --    2.24505   2.27059   2.28627   2.30572   2.32362
 Alpha virt. eigenvalues --    2.33008   2.35517   2.36132   2.36968   2.38474
 Alpha virt. eigenvalues --    2.39235   2.41561   2.42100   2.44042   2.44231
 Alpha virt. eigenvalues --    2.47796   2.50443   2.51240   2.55280   2.60099
 Alpha virt. eigenvalues --    2.61152   2.61295   2.62825   2.65625   2.66983
 Alpha virt. eigenvalues --    2.67969   2.68760   2.70987   2.72594   2.74237
 Alpha virt. eigenvalues --    2.76056   2.79075   2.79858   2.84308   2.85478
 Alpha virt. eigenvalues --    2.89413   2.90686   2.93247   2.94235   2.95546
 Alpha virt. eigenvalues --    3.00156   3.01227   3.07509   3.12519   3.31957
 Alpha virt. eigenvalues --    3.38805   3.46641   3.48205   3.49791   3.50103
 Alpha virt. eigenvalues --    3.50761   3.51468   3.51829   3.52806   3.53344
 Alpha virt. eigenvalues --    3.53968   3.54499   3.54765   3.55498   3.56950
 Alpha virt. eigenvalues --    3.58062   3.59863   3.62296   3.64726   3.65634
 Alpha virt. eigenvalues --    3.69984   3.71294   3.77006   3.82098   3.85121
 Alpha virt. eigenvalues --    3.90924   3.93136   3.94930   4.06523   4.12886
 Alpha virt. eigenvalues --    4.14698   4.19374
          Condensed to atoms (all electrons):
              1          2          3          4          5          6
     1  P   14.472241  -0.268292  -0.256995   0.105653  -0.106407  -0.224078
     2  O   -0.268292   9.166459  -0.061013   0.000758  -0.029522   0.109212
     3  O   -0.256995  -0.061013   9.162437   0.065154   0.016374   0.067895
     4  N    0.105653   0.000758   0.065154   7.372540   0.245791  -0.006350
     5  H   -0.106407  -0.029522   0.016374   0.245791   1.043249  -0.004142
     6  S   -0.224078   0.109212   0.067895  -0.006350  -0.004142  16.702097
     7  C   -0.747968   0.103115   0.004918  -0.263317  -0.016229   0.182865
     8  H    0.065425  -0.000301  -0.005048  -0.007345  -0.092765   0.044079
     9  H   -0.038528   0.008993   0.025117  -0.340782   0.076561   0.011910
    10  C    0.147336  -0.020579   0.032713   0.152724  -0.067424  -0.573880
    11  H    0.011279  -0.005446  -0.002457  -0.092023   0.026680  -0.128233
    12  C   -0.087777   0.012388   0.013961   0.046547  -0.013996   0.171049
    13  H    0.025147  -0.000047  -0.007278   0.003632  -0.000091   0.018358
    14  H   -0.018559   0.001429   0.002475  -0.015913  -0.000332   0.050410
    15  O    0.048156  -0.061853  -0.048162  -0.004418   0.000545  -0.005917
    16  H    0.016204  -0.015000   0.042401  -0.004028   0.000093  -0.007299
    17  H    0.009831   0.057190  -0.014918   0.000921   0.000182  -0.004904
    18  O   -0.027637  -0.031804  -0.001944  -0.001565   0.012578  -0.002882
    19  H    0.042423   0.102481   0.000446  -0.019192   0.024733  -0.017961
    20  H    0.013997  -0.014425   0.000929   0.014295  -0.007880  -0.000014
    21  O   -0.016875  -0.000918  -0.035343  -0.000857   0.001325  -0.019026
    22  H   -0.022092   0.002279   0.080595   0.001519  -0.000996  -0.007652
    23  H    0.007332   0.000632  -0.012615  -0.000892   0.000061   0.011011
    24  O   -0.012412   0.000207  -0.000818  -0.004566   0.000752   0.025097
    25  H    0.001505   0.000028  -0.000180   0.001699   0.000196  -0.002303
              7          8          9         10         11         12
     1  P   -0.747968   0.065425  -0.038528   0.147336   0.011279  -0.087777
     2  O    0.103115  -0.000301   0.008993  -0.020579  -0.005446   0.012388
     3  O    0.004918  -0.005048   0.025117   0.032713  -0.002457   0.013961
     4  N   -0.263317  -0.007345  -0.340782   0.152724  -0.092023   0.046547
     5  H   -0.016229  -0.092765   0.076561  -0.067424   0.026680  -0.013996
     6  S    0.182865   0.044079   0.011910  -0.573880  -0.128233   0.171049
     7  C    6.603288  -0.252491   0.156662  -0.983038   0.388922  -0.238257
     8  H   -0.252491   2.365940  -0.773865   0.143532  -0.261710   0.196842
     9  H    0.156662  -0.773865   2.761762  -0.335309   0.162644  -0.188654
    10  C   -0.983038   0.143532  -0.335309   8.641896  -0.596581  -0.442870
    11  H    0.388922  -0.261710   0.162644  -0.596581   2.292477  -0.233620
    12  C   -0.238257   0.196842  -0.188654  -0.442870  -0.233620   5.613030
    13  H   -0.066585   0.000382  -0.017255  -0.770088   0.133420   0.178336
    14  H    0.172236   0.021500   0.011393  -0.007298  -0.162862  -0.457181
    15  O   -0.005009  -0.000292   0.000481   0.001068   0.000021  -0.000965
    16  H    0.000257   0.000120   0.000114  -0.000616   0.000110  -0.001084
    17  H   -0.005325   0.000176  -0.000531  -0.001294  -0.000291  -0.000056
    18  O    0.017034   0.002501   0.001436  -0.008071   0.003454  -0.002314
    19  H   -0.014781  -0.000298   0.003867   0.001357   0.003120   0.000275
    20  H   -0.012723  -0.000858  -0.002399   0.007876  -0.001677   0.001056
    21  O   -0.019917  -0.005013   0.026610   0.059080   0.001685  -0.074242
    22  H   -0.002057   0.005578  -0.014661   0.041082  -0.001067  -0.011847
    23  H    0.005206  -0.001315   0.000069  -0.007495   0.000223  -0.002139
    24  O    0.094162  -0.009301  -0.000870  -0.162671   0.017374  -0.045380
    25  H   -0.023071  -0.002577  -0.002355   0.081155   0.005622  -0.029304
             13         14         15         16         17         18
     1  P    0.025147  -0.018559   0.048156   0.016204   0.009831  -0.027637
     2  O   -0.000047   0.001429  -0.061853  -0.015000   0.057190  -0.031804
     3  O   -0.007278   0.002475  -0.048162   0.042401  -0.014918  -0.001944
     4  N    0.003632  -0.015913  -0.004418  -0.004028   0.000921  -0.001565
     5  H   -0.000091  -0.000332   0.000545   0.000093   0.000182   0.012578
     6  S    0.018358   0.050410  -0.005917  -0.007299  -0.004904  -0.002882
     7  C   -0.066585   0.172236  -0.005009   0.000257  -0.005325   0.017034
     8  H    0.000382   0.021500  -0.000292   0.000120   0.000176   0.002501
     9  H   -0.017255   0.011393   0.000481   0.000114  -0.000531   0.001436
    10  C   -0.770088  -0.007298   0.001068  -0.000616  -0.001294  -0.008071
    11  H    0.133420  -0.162862   0.000021   0.000110  -0.000291   0.003454
    12  C    0.178336  -0.457181  -0.000965  -0.001084  -0.000056  -0.002314
    13  H    2.620340  -0.518591  -0.000095  -0.000147   0.000207  -0.000545
    14  H   -0.518591   2.605261  -0.000003  -0.000070  -0.000062   0.000397
    15  O   -0.000095  -0.000003   7.840172   0.281355   0.271078  -0.000921
    16  H   -0.000147  -0.000070   0.281355   0.652298  -0.102392  -0.000428
    17  H    0.000207  -0.000062   0.271078  -0.102392   0.637539   0.000796
    18  O   -0.000545   0.000397  -0.000921  -0.000428   0.000796   7.834653
    19  H   -0.000343  -0.000285   0.000201  -0.000179  -0.000330   0.152175
    20  H    0.000164   0.000392  -0.000095   0.000171  -0.000070   0.337090
    21  O    0.019877  -0.000035   0.000241   0.000915  -0.000134  -0.000038
    22  H   -0.005634   0.004427   0.000528  -0.002513   0.000058   0.000015
    23  H    0.008786  -0.001311   0.000084  -0.000109   0.000289   0.000024
    24  O   -0.031211  -0.048904   0.000003  -0.000016   0.000017  -0.000075
    25  H   -0.033414  -0.079305  -0.000007  -0.000008   0.000001  -0.000027
             19         20         21         22         23         24
     1  P    0.042423   0.013997  -0.016875  -0.022092   0.007332  -0.012412
     2  O    0.102481  -0.014425  -0.000918   0.002279   0.000632   0.000207
     3  O    0.000446   0.000929  -0.035343   0.080595  -0.012615  -0.000818
     4  N   -0.019192   0.014295  -0.000857   0.001519  -0.000892  -0.004566
     5  H    0.024733  -0.007880   0.001325  -0.000996   0.000061   0.000752
     6  S   -0.017961  -0.000014  -0.019026  -0.007652   0.011011   0.025097
     7  C   -0.014781  -0.012723  -0.019917  -0.002057   0.005206   0.094162
     8  H   -0.000298  -0.000858  -0.005013   0.005578  -0.001315  -0.009301
     9  H    0.003867  -0.002399   0.026610  -0.014661   0.000069  -0.000870
    10  C    0.001357   0.007876   0.059080   0.041082  -0.007495  -0.162671
    11  H    0.003120  -0.001677   0.001685  -0.001067   0.000223   0.017374
    12  C    0.000275   0.001056  -0.074242  -0.011847  -0.002139  -0.045380
    13  H   -0.000343   0.000164   0.019877  -0.005634   0.008786  -0.031211
    14  H   -0.000285   0.000392  -0.000035   0.004427  -0.001311  -0.048904
    15  O    0.000201  -0.000095   0.000241   0.000528   0.000084   0.000003
    16  H   -0.000179   0.000171   0.000915  -0.002513  -0.000109  -0.000016
    17  H   -0.000330  -0.000070  -0.000134   0.000058   0.000289   0.000017
    18  O    0.152175   0.337090  -0.000038   0.000015   0.000024  -0.000075
    19  H    0.619081  -0.084636  -0.000175  -0.000311   0.000019  -0.000191
    20  H   -0.084636   0.669797   0.000006   0.000104   0.000007   0.000109
    21  O   -0.000175   0.000006   7.895411   0.167192   0.330282   0.006853
    22  H   -0.000311   0.000104   0.167192   0.624405  -0.094366   0.002931
    23  H    0.000019   0.000007   0.330282  -0.094366   0.666964  -0.000605
    24  O   -0.000191   0.000109   0.006853   0.002931  -0.000605   8.345626
    25  H    0.000002  -0.000003  -0.000382  -0.000882   0.000315   0.345552
             25
     1  P    0.001505
     2  O    0.000028
     3  O   -0.000180
     4  N    0.001699
     5  H    0.000196
     6  S   -0.002303
     7  C   -0.023071
     8  H   -0.002577
     9  H   -0.002355
    10  C    0.081155
    11  H    0.005622
    12  C   -0.029304
    13  H   -0.033414
    14  H   -0.079305
    15  O   -0.000007
    16  H   -0.000008
    17  H    0.000001
    18  O   -0.000027
    19  H    0.000002
    20  H   -0.000003
    21  O   -0.000382
    22  H   -0.000882
    23  H    0.000315
    24  O    0.345552
    25  H    0.692143
 Mulliken atomic charges:
              1
     1  P    1.861089
     2  O   -1.055970
     3  O   -1.068644
     4  N   -0.249986
     5  H   -0.109337
     6  S   -0.389342
     7  C    0.922105
     8  H   -0.432894
     9  H   -0.532408
    10  C    0.667395
    11  H   -0.561063
    12  C    1.596204
    13  H   -0.557327
    14  H   -0.559209
    15  O   -0.316197
    16  H    0.139850
    17  H    0.152023
    18  O   -0.283906
    19  H    0.188503
    20  H    0.078787
    21  O   -0.336520
    22  H    0.233366
    23  H    0.089545
    24  O   -0.521664
    25  H    0.045599
 Sum of Mulliken charges=  -1.00000
 Atomic charges with hydrogens summed into heavy atoms:
              1
     1  P    1.861089
     2  O   -1.055970
     3  O   -1.068644
     4  N   -0.359323
     5  H    0.000000
     6  S   -0.389342
     7  C   -0.043197
     8  H    0.000000
     9  H    0.000000
    10  C    0.106332
    11  H    0.000000
    12  C    0.479668
    13  H    0.000000
    14  H    0.000000
    15  O   -0.024324
    16  H    0.000000
    17  H    0.000000
    18  O   -0.016615
    19  H    0.000000
    20  H    0.000000
    21  O   -0.013610
    22  H    0.000000
    23  H    0.000000
    24  O   -0.476064
    25  H    0.000000
 Sum of Mulliken charges=  -1.00000
 Electronic spatial extent (au):  <R**2>=  3456.0293
 Charge=    -1.0000 electrons
 Dipole moment (field-independent basis, Debye):
    X=    -8.5894    Y=    -2.4019    Z=    -1.9187  Tot=     9.1230
 Quadrupole moment (field-independent basis, Debye-Ang):
   XX=  -128.8282   YY=  -121.0029   ZZ=   -96.5020
   XY=    -2.1613   XZ=     5.1522   YZ=    -2.5498
 Traceless Quadrupole moment (field-independent basis, Debye-Ang):
   XX=   -13.3839   YY=    -5.5586   ZZ=    18.9424
   XY=    -2.1613   XZ=     5.1522   YZ=    -2.5498
 Octapole moment (field-independent basis, Debye-Ang**2):
  XXX=  -146.9724  YYY=     6.2548  ZZZ=     1.3112  XYY=   -40.7633
  XXY=   -24.7564  XXZ=   -22.9983  XZZ=     0.3697  YZZ=     2.5918
  YYZ=   -23.2440  XYZ=    10.5024
 Hexadecapole moment (field-independent basis, Debye-Ang**3):
 XXXX= -2950.3026 YYYY= -1681.6806 ZZZZ=  -496.1299 XXXY=  -297.3835
 XXXZ=   132.9711 YYYX=   133.2269 YYYZ=   -11.3188 ZZZX=   -13.4068
 ZZZY=    -5.1316 XXYY=  -879.2863 XXZZ=  -521.9932 YYZZ=  -279.6421
 XXYZ=     9.7545 YYXZ=    13.2609 ZZXY=   -14.7311
 N-N= 1.068004483897D+03 E-N=-5.387939770066D+03  KE= 1.362174277620D+03
 No NMR shielding tensors so no spin-rotation constants.
 Leave Link  601 at Sun Aug  3 13:22:01 2008, MaxMem=  536870912 cpu:      10.5
 (Enter /usr/local/Chem-Apps/g03_d01/g03/l701.exe)
 Compute integral first derivatives.
 ... and contract with generalized density number  0.
 Leave Link  701 at Sun Aug  3 13:22:02 2008, MaxMem=  536870912 cpu:       6.1
 (Enter /usr/local/Chem-Apps/g03_d01/g03/l702.exe)
 L702 exits ... SP integral derivatives will be done elsewhere.
 Leave Link  702 at Sun Aug  3 13:22:02 2008, MaxMem=  536870912 cpu:       0.0
 (Enter /usr/local/Chem-Apps/g03_d01/g03/l703.exe)
 Compute integral first derivatives, UseDBF=F.
 Integral derivatives from FoFDir, PRISM(SPDF).
 Symmetry not used in FoFDir.
 MinBra= 0 MaxBra= 2 Meth= 1.
 IRaf=       0 NMat=   1 IRICut=       1 DoRegI=T DoRafI=F ISym2E= 0 JSym2E=0.
 Leave Link  703 at Sun Aug  3 13:23:05 2008, MaxMem=  536870912 cpu:     673.6
 (Enter /usr/local/Chem-Apps/g03_d01/g03/l716.exe)
 Dipole        =-3.37933820D+00-9.44968719D-01-7.54861890D-01
 ***** Axes restored to original set *****
 -------------------------------------------------------------------
 Center     Atomic                   Forces (Hartrees/Bohr)
 Number     Number              X              Y              Z
 -------------------------------------------------------------------
    1         15          -0.003283189    0.001456379    0.003102473
    2          8           0.001712353    0.000535703   -0.000726889
    3          8           0.000806633   -0.000887867   -0.000541135
    4          7           0.000996320    0.000280479   -0.001542172
    5          1           0.000013842   -0.000286421    0.000327936
    6         16           0.001801480    0.000811182   -0.001663944
    7          6          -0.002646845   -0.000715818    0.000774830
    8          1          -0.000173129    0.000086423   -0.000364142
    9          1          -0.000137868    0.000069923    0.000100892
   10          6           0.003580098   -0.002236688    0.002167345
   11          1          -0.001384148    0.000172250   -0.000163429
   12          6          -0.016217510   -0.009953349    0.004824597
   13          1           0.012409474   -0.001401393    0.005650527
   14          1           0.014852954   -0.001344855    0.010232941
   15          8           0.000438339   -0.000251578   -0.000031647
   16          1          -0.000283789    0.000130302    0.000015792
   17          1          -0.000298260    0.000190508    0.000039587
   18          8           0.000213106    0.000760273    0.000032135
   19          1          -0.000086101   -0.000621862    0.000004730
   20          1          -0.000088319   -0.000343843   -0.000103593
   21          8           0.000645982   -0.001823691   -0.000315031
   22          1          -0.000117481    0.000296055    0.000026862
   23          1          -0.000032838    0.000522796   -0.000123779
   24          8          -0.013653731    0.016627851   -0.022874136
   25          1           0.000932628   -0.002072759    0.001149250
 -------------------------------------------------------------------
 Cartesian Forces:  Max     0.022874136 RMS     0.005125095
 Leave Link  716 at Sun Aug  3 13:23:05 2008, MaxMem=  536870912 cpu:       0.0
 (Enter /usr/local/Chem-Apps/g03_d01/g03/l103.exe)

 GradGradGradGradGradGradGradGradGradGradGradGradGradGradGradGradGradGrad
 Berny optimization.
 Internal  Forces:  Max     0.023641388 RMS     0.003886615
 Search for a local minimum.
 Step number   1 out of a maximum of 141
 All quantities printed in internal units (Hartrees-Bohrs-Radians)
 Swaping is turned off.
 Second derivative matrix not updated -- first step.
     Eigenvalues ---    0.00230   0.00230   0.00376   0.00557   0.00611
     Eigenvalues ---    0.00824   0.01193   0.01295   0.01396   0.01821
     Eigenvalues ---    0.02977   0.03078   0.03426   0.03722   0.04133
     Eigenvalues ---    0.04293   0.04523   0.05077   0.05272   0.05326
     Eigenvalues ---    0.05704   0.06247   0.06525   0.06602   0.07573
     Eigenvalues ---    0.07789   0.09543   0.10732   0.11333   0.11983
     Eigenvalues ---    0.12552   0.13057   0.13885   0.14338   0.15616
     Eigenvalues ---    0.15838   0.16000   0.16000   0.16000   0.17169
     Eigenvalues ---    0.18499   0.19882   0.19937   0.21203   0.21889
     Eigenvalues ---    0.22127   0.23305   0.25000   0.25000   0.25796
     Eigenvalues ---    0.30775   0.31676   0.33911   0.33928   0.34003
     Eigenvalues ---    0.34237   0.34623   0.35756   0.40989   0.44116
     Eigenvalues ---    0.49828   0.49942   0.50849   0.51257   0.54506
     Eigenvalues ---    0.54676   0.55473   0.64045   0.651141000.00000
     Eigenvalues --- 1000.000001000.000001000.000001000.000001000.00000
     Eigenvalues --- 1000.000001000.000001000.000001000.000001000.00000
     Eigenvalues --- 1000.000001000.000001000.000001000.000001000.00000
     Eigenvalues --- 1000.000001000.000001000.000001000.000001000.00000
     Eigenvalues --- 1000.000001000.000001000.000001000.000001000.00000
     Eigenvalues --- 1000.000001000.000001000.000001000.000001000.00000
     Eigenvalues --- 1000.000001000.000001000.000001000.000001000.00000
     Eigenvalues --- 1000.000001000.000001000.000001000.000001000.00000
     Eigenvalues --- 1000.000001000.000001000.000001000.000001000.00000
     Eigenvalues --- 1000.000001000.000001000.000001000.000001000.00000
     Eigenvalues --- 1000.000001000.000001000.000001000.000001000.00000
     Eigenvalues --- 1000.000001000.000001000.000001000.000001000.00000
     Eigenvalues --- 1000.00000
 Quadratic step=6.607D-01 exceeds max=3.000D-01 adjusted using Lamda=-1.803D-02.
 Angle between NR and scaled steps=  38.86 degrees.
 Angle between quadratic step and forces=  37.04 degrees.
 Linear search not attempted -- option 19 set.
 Iteration  1 RMS(Cart)=  0.07319758 RMS(Int)=  0.00233025
 Iteration  2 RMS(Cart)=  0.00283849 RMS(Int)=  0.00119572
 Iteration  3 RMS(Cart)=  0.00000485 RMS(Int)=  0.00119572
 Iteration  4 RMS(Cart)=  0.00000001 RMS(Int)=  0.00119572
 Variable       Old X    -DE/DX   Delta X   Delta X   Delta X     New X
                                 (Linear)    (Quad)   (Total)
    R1        2.90058   0.00172   0.00000   0.00264   0.00265   2.90323
    R2        2.89738   0.00260   0.00000   0.00382   0.00382   2.90120
    R3        3.25941  -0.00008   0.00000   0.00158   0.00161   3.26102
    R4        4.23732  -0.00096   0.00000  -0.00325  -0.00324   4.23408
    R5        4.00406  -0.00051   0.00000  -0.00869  -0.00869   3.99536
    R6        3.37972  -0.00021   0.00000  -0.00266  -0.00266   3.37706
    R7        4.14593   0.00012   0.00000   0.00086   0.00086   4.14679
    R8        3.33621   0.00017   0.00000   0.00208   0.00208   3.33828
    R9        1.93016  -0.00026   0.00000  -0.00057  -0.00057   1.92959
   R10        2.75842   0.00120   0.00000   0.00277   0.00275   2.76117
   R11        3.52809   0.00080   0.00000   0.00133   0.00131   3.52940
   R12        2.07324   0.00037   0.00000   0.00102   0.00102   2.07427
   R13        2.07452  -0.00008   0.00000  -0.00021  -0.00021   2.07431
   R14        2.94845  -0.00013   0.00000  -0.00218  -0.00219   2.94626
   R15        2.07481   0.00054   0.00000   0.00150   0.00150   2.07631
   R16        2.86444  -0.00027   0.00000  -0.00084  -0.00084   2.86360
   R17        2.06933   0.00286   0.00000   0.00794   0.00794   2.07726
   R18        2.06292   0.00616   0.00000   0.01692   0.01692   2.07984
   R19        2.70231   0.02364   0.00000   0.05525   0.05525   2.75756
   R20        1.83535   0.00000   0.00000  -0.00014  -0.00014   1.83521
   R21        1.83773  -0.00034   0.00000  -0.00061  -0.00062   1.83711
   R22        1.86624   0.00032   0.00000   0.00062   0.00062   1.86686
   R23        1.82273  -0.00006   0.00000  -0.00010  -0.00010   1.82263
   R24        1.86738   0.00022   0.00000   0.00042   0.00042   1.86780
   R25        1.82121  -0.00025   0.00000  -0.00044  -0.00044   1.82077
   R26        1.81414   0.00075   0.00000   0.00132   0.00132   1.81545
    A1        2.10195  -0.00129   0.00000  -0.00678  -0.00679   2.09516
    A2        1.92894  -0.00010   0.00000  -0.00637  -0.00641   1.92253
    A3        1.91552  -0.00009   0.00000  -0.00114  -0.00110   1.91442
    A4        1.93867   0.00072   0.00000   0.00374   0.00372   1.94239
    A5        1.88614   0.00155   0.00000   0.01085   0.01084   1.89698
    A6        1.63446  -0.00055   0.00000   0.00256   0.00250   1.63696
    A7        1.82294   0.00080   0.00000   0.00584   0.00584   1.82878
    A8        1.91875  -0.00024   0.00000  -0.00173  -0.00174   1.91701
    A9        2.52855  -0.00052   0.00000  -0.00351  -0.00352   2.52502
   A10        1.80660  -0.00020   0.00000   0.00032   0.00032   1.80692
   A11        2.14728   0.00315   0.00000   0.02096   0.02098   2.16826
   A12        2.23103  -0.00264   0.00000  -0.01612  -0.01621   2.21482
   A13        1.89088  -0.00047   0.00000  -0.00656  -0.00654   1.88434
   A14        1.92499   0.00102   0.00000   0.00576   0.00566   1.93065
   A15        1.95879  -0.00089   0.00000  -0.00892  -0.00889   1.94990
   A16        1.62366   0.00089   0.00000   0.00205   0.00188   1.62554
   A17        1.91096  -0.00052   0.00000  -0.00553  -0.00549   1.90547
   A18        1.88674   0.00091   0.00000   0.00806   0.00805   1.89479
   A19        1.98094  -0.00056   0.00000  -0.00399  -0.00406   1.97688
   A20        1.88132  -0.00013   0.00000  -0.00024  -0.00024   1.88108
   A21        1.90600   0.00033   0.00000   0.00007   0.00007   1.90608
   A22        1.89525  -0.00001   0.00000   0.00193   0.00193   1.89719
   A23        1.90737  -0.00048   0.00000   0.00063   0.00059   1.90796
   A24        1.86303  -0.00053   0.00000   0.00356   0.00370   1.86673
   A25        1.86787   0.00401   0.00000   0.03076   0.03091   1.89878
   A26        1.92312   0.00093   0.00000  -0.00346  -0.00369   1.91943
   A27        1.97169  -0.00253   0.00000  -0.01135  -0.01158   1.96011
   A28        1.92669  -0.00120   0.00000  -0.01812  -0.01832   1.90837
   A29        1.95469  -0.00389   0.00000  -0.05581  -0.05649   1.89820
   A30        1.97151  -0.00541   0.00000  -0.05351  -0.05355   1.91796
   A31        1.95592  -0.02086   0.00000  -0.07146  -0.07000   1.88592
   A32        1.94667  -0.00065   0.00000  -0.02514  -0.03480   1.91188
   A33        1.83541   0.01492   0.00000   0.09500   0.09196   1.92737
   A34        1.78852   0.01857   0.00000   0.13556   0.13370   1.92221
   A35        1.74763  -0.00037   0.00000  -0.00283  -0.00284   1.74479
   A36        2.51024   0.00096   0.00000   0.00287   0.00286   2.51309
   A37        2.57581   0.00007   0.00000   0.00026   0.00026   2.57606
   A38        1.79417  -0.00049   0.00000  -0.00276  -0.00276   1.79141
   A39        2.92193   0.00026   0.00000   0.00097   0.00097   2.92290
   A40        1.79577  -0.00045   0.00000  -0.00250  -0.00250   1.79327
   A41        1.91114  -0.00377   0.00000  -0.02117  -0.02117   1.88996
   A42        3.07584  -0.00031   0.00000  -0.00066  -0.00063   3.07521
   A43        3.06985   0.00176   0.00000   0.00660   0.00661   3.07646
    D1       -0.03940  -0.00053   0.00000  -0.00607  -0.00604  -0.04544
    D2        2.97473  -0.00041   0.00000  -0.00357  -0.00354   2.97119
    D3       -2.33800  -0.00022   0.00000   0.00222   0.00219  -2.33581
    D4        0.67613  -0.00009   0.00000   0.00472   0.00469   0.68082
    D5        2.16633   0.00051   0.00000   0.00262   0.00265   2.16898
    D6       -1.10273   0.00063   0.00000   0.00512   0.00515  -1.09758
    D7        0.03479   0.00036   0.00000   0.00378   0.00375   0.03855
    D8        2.74542   0.00009   0.00000   0.00874   0.00883   2.75424
    D9        2.32923  -0.00031   0.00000  -0.00891  -0.00896   2.32027
   D10       -1.24333  -0.00058   0.00000  -0.00395  -0.00389  -1.24722
   D11       -2.18440   0.00006   0.00000   0.00054   0.00051  -2.18389
   D12        0.52622  -0.00021   0.00000   0.00550   0.00558   0.53180
   D13       -0.51980  -0.00007   0.00000   0.00620   0.00618  -0.51361
   D14       -2.67001   0.00069   0.00000   0.01793   0.01792  -2.65209
   D15       -2.90000   0.00118   0.00000   0.01841   0.01841  -2.88159
   D16        1.23298   0.00194   0.00000   0.03014   0.03015   1.26312
   D17        1.44667  -0.00043   0.00000   0.00462   0.00461   1.45128
   D18       -0.70354   0.00033   0.00000   0.01635   0.01635  -0.68720
   D19        2.31223  -0.00093   0.00000  -0.02895  -0.02895   2.28328
   D20       -1.64797  -0.00146   0.00000  -0.03015  -0.03012  -1.67809
   D21        0.33418  -0.00057   0.00000  -0.02285  -0.02279   0.31139
   D22        0.00631   0.00039   0.00000   0.00641   0.00639   0.01270
   D23       -2.92606   0.00004   0.00000   0.00134   0.00134  -2.92472
   D24        0.07774  -0.00040   0.00000  -0.01193  -0.01192   0.06582
   D25        3.00371   0.00003   0.00000  -0.00623  -0.00625   2.99746
   D26        0.01498   0.00045   0.00000   0.00529   0.00524   0.02022
   D27       -2.66720  -0.00129   0.00000  -0.01298  -0.01286  -2.68006
   D28       -1.46680  -0.00014   0.00000   0.00629   0.00637  -1.46043
   D29        1.09885   0.00068   0.00000   0.02060   0.02053   1.11937
   D30        3.03091  -0.00043   0.00000  -0.01000  -0.01000   3.02091
   D31       -1.20719  -0.00035   0.00000  -0.00876  -0.00877  -1.21596
   D32        0.89631  -0.00008   0.00000  -0.00325  -0.00330   0.89301
   D33        0.92080   0.00006   0.00000   0.00036   0.00038   0.92118
   D34        2.96588   0.00014   0.00000   0.00160   0.00161   2.96750
   D35       -1.21380   0.00040   0.00000   0.00711   0.00708  -1.20672
[...]
                 (A) (A) (A) (A) (A) (A) (A) (A) (A) (A) (A) (A)
                 (A) (A) (A) (A) (A) (A) (A) (A) (A) (A) (A) (A)
                 (A) (A) (A) (A) (A) (A) (A) (A) (A) (A) (A) (A)
                 (A) (A) (A) (A)
 The electronic state is 1-A.
 Alpha  occ. eigenvalues --  -88.86304 -77.14192 -19.14653 -19.13176 -19.13051
 Alpha  occ. eigenvalues --  -19.12700 -19.11138 -19.10813 -14.32872 -10.22764
 Alpha  occ. eigenvalues --  -10.21293 -10.21140  -7.92316  -6.61641  -5.88666
 Alpha  occ. eigenvalues --   -5.88393  -5.87818  -4.77974  -4.77747  -4.77633
 Alpha  occ. eigenvalues --   -1.01834  -1.00099  -0.99367  -0.99065  -0.98379
 Alpha  occ. eigenvalues --   -0.93486  -0.89999  -0.78695  -0.69038  -0.66359
 Alpha  occ. eigenvalues --   -0.57287  -0.54336  -0.51065  -0.50802  -0.50289
 Alpha  occ. eigenvalues --   -0.50181  -0.47903  -0.46358  -0.44375  -0.41775
 Alpha  occ. eigenvalues --   -0.40539  -0.39914  -0.39276  -0.38637  -0.38121
 Alpha  occ. eigenvalues --   -0.37044  -0.36648  -0.33948  -0.32640  -0.31024
 Alpha  occ. eigenvalues --   -0.30320  -0.30189  -0.30077  -0.29548  -0.28891
 Alpha  occ. eigenvalues --   -0.28240  -0.27431  -0.25819  -0.22710
 Alpha virt. eigenvalues --   -0.00802   0.00080   0.01060   0.01476   0.02053
 Alpha virt. eigenvalues --    0.02700   0.03803   0.03952   0.05471   0.05693
 Alpha virt. eigenvalues --    0.06124   0.07472   0.07961   0.08114   0.09016
 Alpha virt. eigenvalues --    0.09817   0.10076   0.10555   0.10959   0.11521
 Alpha virt. eigenvalues --    0.12346   0.12848   0.13285   0.13463   0.14330
 Alpha virt. eigenvalues --    0.14526   0.15219   0.15421   0.15823   0.16101
 Alpha virt. eigenvalues --    0.16392   0.16733   0.17234   0.17636   0.17945
 Alpha virt. eigenvalues --    0.18287   0.19117   0.19440   0.19644   0.20499
 Alpha virt. eigenvalues --    0.20796   0.21258   0.21548   0.22012   0.22408
 Alpha virt. eigenvalues --    0.23015   0.23605   0.24104   0.24406   0.24954
 Alpha virt. eigenvalues --    0.25220   0.25596   0.26078   0.27701   0.27949
 Alpha virt. eigenvalues --    0.28259   0.28697   0.29167   0.30613   0.30718
 Alpha virt. eigenvalues --    0.32102   0.32927   0.33638   0.34274   0.34493
 Alpha virt. eigenvalues --    0.36023   0.36855   0.37190   0.38044   0.38707
 Alpha virt. eigenvalues --    0.39914   0.40787   0.42129   0.42330   0.42814
 Alpha virt. eigenvalues --    0.43124   0.44384   0.44705   0.45069   0.46290
 Alpha virt. eigenvalues --    0.46982   0.48073   0.48198   0.49923   0.50841
 Alpha virt. eigenvalues --    0.52003   0.52415   0.53617   0.55138   0.56044
 Alpha virt. eigenvalues --    0.57980   0.58566   0.59331   0.60290   0.60593
 Alpha virt. eigenvalues --    0.61758   0.63583   0.64884   0.66209   0.66443
 Alpha virt. eigenvalues --    0.67956   0.69149   0.70198   0.70497   0.72151
 Alpha virt. eigenvalues --    0.73621   0.74053   0.74730   0.75627   0.76258
 Alpha virt. eigenvalues --    0.76572   0.76867   0.77745   0.78269   0.79733
 Alpha virt. eigenvalues --    0.80106   0.81782   0.82118   0.82980   0.83368
 Alpha virt. eigenvalues --    0.83944   0.85341   0.85953   0.87034   0.88085
 Alpha virt. eigenvalues --    0.89215   0.89676   0.90519   0.90879   0.92300
 Alpha virt. eigenvalues --    0.92657   0.93553   0.94100   0.95347   0.95629
 Alpha virt. eigenvalues --    0.97048   0.98299   0.98872   0.99644   1.00034
 Alpha virt. eigenvalues --    1.01400   1.02098   1.03053   1.03477   1.04505
 Alpha virt. eigenvalues --    1.05302   1.05945   1.06873   1.07403   1.08884
 Alpha virt. eigenvalues --    1.09182   1.09370   1.11294   1.12060   1.12284
 Alpha virt. eigenvalues --    1.13206   1.14251   1.15029   1.15760   1.16216
 Alpha virt. eigenvalues --    1.17484   1.17999   1.18242   1.19973   1.20477
 Alpha virt. eigenvalues --    1.20714   1.21904   1.22917   1.24086   1.24780
 Alpha virt. eigenvalues --    1.25767   1.26340   1.28032   1.28770   1.30206
 Alpha virt. eigenvalues --    1.31768   1.32519   1.33468   1.34601   1.35924
 Alpha virt. eigenvalues --    1.38184   1.38885   1.39823   1.41116   1.41862
 Alpha virt. eigenvalues --    1.44955   1.45604   1.46892   1.48381   1.50213
 Alpha virt. eigenvalues --    1.52955   1.53868   1.55857   1.56276   1.56974
 Alpha virt. eigenvalues --    1.58340   1.61646   1.62617   1.64087   1.65744
 Alpha virt. eigenvalues --    1.66917   1.67750   1.68759   1.70773   1.72318
 Alpha virt. eigenvalues --    1.74007   1.75723   1.76218   1.76530   1.77868
 Alpha virt. eigenvalues --    1.78891   1.80268   1.80772   1.81972   1.83256
 Alpha virt. eigenvalues --    1.83987   1.84625   1.85191   1.87621   1.88206
 Alpha virt. eigenvalues --    1.89483   1.90657   1.91621   1.92877   1.94613
 Alpha virt. eigenvalues --    1.96758   1.97074   1.98063   1.99148   2.00472
 Alpha virt. eigenvalues --    2.01299   2.02669   2.04092   2.07749   2.08996
 Alpha virt. eigenvalues --    2.09867   2.12088   2.13533   2.14363   2.15994
 Alpha virt. eigenvalues --    2.18766   2.19951   2.23026   2.25890   2.26774
 Alpha virt. eigenvalues --    2.27666   2.30948   2.32197   2.33132   2.34942
 Alpha virt. eigenvalues --    2.35387   2.36050   2.37057   2.40093   2.41067
 Alpha virt. eigenvalues --    2.42742   2.43837   2.46220   2.48886   2.49938
 Alpha virt. eigenvalues --    2.52131   2.52632   2.54659   2.55874   2.56677
 Alpha virt. eigenvalues --    2.60358   2.61493   2.61673   2.65142   2.66373
 Alpha virt. eigenvalues --    2.66960   2.68177   2.70622   2.73364   2.76314
 Alpha virt. eigenvalues --    2.77391   2.85641   3.10086   3.12524   3.18316
 Alpha virt. eigenvalues --    3.19052   3.21673   3.24494   3.25182   3.26085
 Alpha virt. eigenvalues --    3.26627   3.28699   3.31733   3.34009   3.34314
 Alpha virt. eigenvalues --    3.35975   3.36965   3.38012   3.40082   3.40920
 Alpha virt. eigenvalues --    3.43900   3.48890   3.50552   3.51076   3.54234
 Alpha virt. eigenvalues --    3.54870   3.56734   3.57954   3.62239   3.64994
 Alpha virt. eigenvalues --    3.68562   3.75008   3.79495   3.80933   3.81223
 Alpha virt. eigenvalues --    3.88935   3.89838   3.94734   4.90002   5.01524
 Alpha virt. eigenvalues --    5.17736   5.29786   5.38024   5.40904   5.42392
 Alpha virt. eigenvalues --    5.44546   5.49093   5.50135   5.52083   5.54463
 Alpha virt. eigenvalues --    5.55274   5.58578   5.59438   5.63556   5.69506
 Alpha virt. eigenvalues --    5.73960   6.83126   6.84498   6.85500   6.88350
 Alpha virt. eigenvalues --    6.90776   6.99580   7.03604   8.73881   8.97531
 Alpha virt. eigenvalues --    9.12567  10.15474  20.73175  20.80468  20.88950
 Alpha virt. eigenvalues --   20.98886  21.00747  35.04823  35.25955  35.41173
 Alpha virt. eigenvalues --   36.86791  36.93315  36.98561  36.99637  37.01770
 Alpha virt. eigenvalues --   37.01870  37.02728  37.03687  37.07223  37.08003
 Alpha virt. eigenvalues --   37.12208  37.17203  37.21802  59.14259
          Condensed to atoms (all electrons):
              1          2          3          4          5          6
     1  P   13.393753   0.050296  -0.010060   0.250067  -0.011808   0.195966
     2  O    0.050296   9.089455  -0.100790  -0.025648  -0.005370  -0.002597
     3  O   -0.010060  -0.100790   9.146036  -0.018555   0.000816   0.009891
     4  N    0.250067  -0.025648  -0.018555   7.028082   0.357339  -0.018038
     5  H   -0.011808  -0.005370   0.000816   0.357339   0.429325  -0.001979
     6  S    0.195966  -0.002597   0.009891  -0.018038  -0.001979  16.080461
     7  C   -0.130172   0.020671   0.028142   0.028548  -0.019702  -0.095546
     8  H    0.007181  -0.000351  -0.001352  -0.021710  -0.003500   0.003325
     9  H    0.000093   0.001100   0.002500  -0.049297   0.002819   0.002922
    10  C   -0.072439   0.009581   0.002852   0.027988  -0.002188   0.151654
    11  H   -0.006069  -0.000480   0.000301  -0.004728   0.001000  -0.033487
    12  C   -0.020070   0.003622   0.001690   0.002224  -0.000230  -0.117491
    13  H    0.001541  -0.000022  -0.000644  -0.001231   0.000001  -0.005549
    14  H    0.000522   0.000002   0.000069   0.000326  -0.000002  -0.001469
    15  O   -0.015506  -0.028916  -0.019219   0.000476  -0.000035   0.003488
    16  H    0.007632   0.001553   0.014045  -0.000036  -0.000001  -0.000666
    17  H    0.009758   0.016796   0.001474   0.000208   0.000001  -0.000785
    18  O   -0.005133  -0.046320  -0.002819  -0.004627   0.004661  -0.004664
    19  H    0.019213   0.024539  -0.000726  -0.003081  -0.000520  -0.002775
    20  H    0.013120   0.005239  -0.000280   0.001111  -0.000341  -0.002689
    21  O   -0.007270  -0.000891  -0.045727  -0.001786   0.000025  -0.007356
    22  H    0.014770  -0.000503   0.021564   0.000394   0.000000  -0.002086
    23  H    0.010125  -0.000164   0.003914  -0.000598   0.000000   0.003439
    24  O   -0.003878  -0.000049   0.000232  -0.001032  -0.000043   0.007758
    25  H    0.000425   0.000000  -0.000007   0.000254   0.000000   0.000381
              7          8          9         10         11         12
     1  P   -0.130172   0.007181   0.000093  -0.072439  -0.006069  -0.020070
     2  O    0.020671  -0.000351   0.001100   0.009581  -0.000480   0.003622
     3  O    0.028142  -0.001352   0.002500   0.002852   0.000301   0.001690
     4  N    0.028548  -0.021710  -0.049297   0.027988  -0.004728   0.002224
     5  H   -0.019702  -0.003500   0.002819  -0.002188   0.001000  -0.000230
     6  S   -0.095546   0.003325   0.002922   0.151654  -0.033487  -0.117491
     7  C    5.296929   0.382784   0.421788   0.222982  -0.004903  -0.067034
     8  H    0.382784   0.456281  -0.011401  -0.029675  -0.003113   0.003171
     9  H    0.421788  -0.011401   0.473470  -0.028674   0.002086  -0.006137
    10  C    0.222982  -0.029675  -0.028674   5.366549   0.420978   0.311433
    11  H   -0.004903  -0.003113   0.002086   0.420978   0.498911  -0.024769
    12  C   -0.067034   0.003171  -0.006137   0.311433  -0.024769   4.986106
    13  H    0.008168   0.000260   0.001917  -0.022585   0.002176   0.381471
    14  H   -0.002723  -0.000142   0.000048  -0.018588  -0.001823   0.405200
    15  O    0.000210  -0.000001  -0.000007   0.000059   0.000000   0.000055
    16  H    0.000615   0.000000   0.000000  -0.000367   0.000000   0.000022
    17  H    0.000331   0.000000   0.000000  -0.000221   0.000000   0.000016
    18  O   -0.006448  -0.000026  -0.000030   0.001621   0.000245  -0.001639
    19  H   -0.000794   0.000000   0.000000   0.000603   0.000000   0.000298
    20  H   -0.002140   0.000000   0.000000   0.003187  -0.000071   0.000760
    21  O   -0.006415  -0.000133   0.001049   0.009611  -0.000032  -0.015423
    22  H   -0.002256  -0.000003  -0.000065   0.000316  -0.000002  -0.000779
    23  H    0.001160   0.000000  -0.000002   0.000147   0.000002   0.000232
    24  O    0.010910  -0.003485   0.002048  -0.031976  -0.000538   0.040497
    25  H   -0.001237   0.000106  -0.000118   0.010076  -0.000040  -0.027959
             13         14         15         16         17         18
     1  P    0.001541   0.000522  -0.015506   0.007632   0.009758  -0.005133
     2  O   -0.000022   0.000002  -0.028916   0.001553   0.016796  -0.046320
     3  O   -0.000644   0.000069  -0.019219   0.014045   0.001474  -0.002819
     4  N   -0.001231   0.000326   0.000476  -0.000036   0.000208  -0.004627
     5  H    0.000001  -0.000002  -0.000035  -0.000001   0.000001   0.004661
     6  S   -0.005549  -0.001469   0.003488  -0.000666  -0.000785  -0.004664
     7  C    0.008168  -0.002723   0.000210   0.000615   0.000331  -0.006448
     8  H    0.000260  -0.000142  -0.000001   0.000000   0.000000  -0.000026
     9  H    0.001917   0.000048  -0.000007   0.000000   0.000000  -0.000030
    10  C   -0.022585  -0.018588   0.000059  -0.000367  -0.000221   0.001621
    11  H    0.002176  -0.001823   0.000000   0.000000   0.000000   0.000245
    12  C    0.381471   0.405200   0.000055   0.000022   0.000016  -0.001639
    13  H    0.508821  -0.018737  -0.000001   0.000000   0.000000   0.000000
    14  H   -0.018737   0.516046   0.000000   0.000000   0.000000  -0.000006
    15  O   -0.000001   0.000000   8.070075   0.298341   0.295721  -0.000227
    16  H    0.000000   0.000000   0.298341   0.394967  -0.015382   0.000003
    17  H    0.000000   0.000000   0.295721  -0.015382   0.387476   0.000163
    18  O    0.000000  -0.000006  -0.000227   0.000003   0.000163   8.133073
    19  H    0.000000   0.000000   0.000116   0.000000   0.000032   0.279133
    20  H    0.000000   0.000000   0.000005   0.000000   0.000001   0.292982
    21  O    0.005820   0.000277   0.000177   0.000061  -0.000010  -0.000037
    22  H   -0.000128   0.000002   0.000017   0.000028   0.000001   0.000003
    23  H    0.000593   0.000031  -0.000004   0.000001   0.000000   0.000000
    24  O   -0.027157  -0.051349   0.000001   0.000000   0.000000  -0.000001
    25  H   -0.007279  -0.001484   0.000000   0.000000   0.000000   0.000000
             19         20         21         22         23         24
     1  P    0.019213   0.013120  -0.007270   0.014770   0.010125  -0.003878
     2  O    0.024539   0.005239  -0.000891  -0.000503  -0.000164  -0.000049
     3  O   -0.000726  -0.000280  -0.045727   0.021564   0.003914   0.000232
     4  N   -0.003081   0.001111  -0.001786   0.000394  -0.000598  -0.001032
     5  H   -0.000520  -0.000341   0.000025   0.000000   0.000000  -0.000043
     6  S   -0.002775  -0.002689  -0.007356  -0.002086   0.003439   0.007758
     7  C   -0.000794  -0.002140  -0.006415  -0.002256   0.001160   0.010910
     8  H    0.000000   0.000000  -0.000133  -0.000003   0.000000  -0.003485
     9  H    0.000000   0.000000   0.001049  -0.000065  -0.000002   0.002048
    10  C    0.000603   0.003187   0.009611   0.000316   0.000147  -0.031976
    11  H    0.000000  -0.000071  -0.000032  -0.000002   0.000002  -0.000538
    12  C    0.000298   0.000760  -0.015423  -0.000779   0.000232   0.040497
    13  H    0.000000   0.000000   0.005820  -0.000128   0.000593  -0.027157
    14  H    0.000000   0.000000   0.000277   0.000002   0.000031  -0.051349
    15  O    0.000116   0.000005   0.000177   0.000017  -0.000004   0.000001
    16  H    0.000000   0.000000   0.000061   0.000028   0.000001   0.000000
    17  H    0.000032   0.000001  -0.000010   0.000001   0.000000   0.000000
    18  O    0.279133   0.292982  -0.000037   0.000003   0.000000  -0.000001
    19  H    0.343539  -0.012284   0.000001   0.000000   0.000000   0.000005
    20  H   -0.012284   0.418194   0.000000   0.000000   0.000000   0.000012
    21  O    0.000001   0.000000   8.114117   0.288456   0.291523   0.000869
    22  H    0.000000   0.000000   0.288456   0.341584  -0.013822   0.000004
    23  H    0.000000   0.000000   0.291523  -0.013822   0.431981  -0.000096
    24  O    0.000005   0.000012   0.000869   0.000004  -0.000096   8.462891
    25  H    0.000000   0.000000   0.000046   0.000000   0.000000   0.324492
             25
     1  P    0.000425
     2  O    0.000000
     3  O   -0.000007
     4  N    0.000254
     5  H    0.000000
     6  S    0.000381
     7  C   -0.001237
     8  H    0.000106
     9  H   -0.000118
    10  C    0.010076
    11  H   -0.000040
    12  C   -0.027959
    13  H   -0.007279
    14  H   -0.001484
    15  O    0.000000
    16  H    0.000000
    17  H    0.000000
    18  O    0.000000
    19  H    0.000000
    20  H    0.000000
    21  O    0.000046
    22  H    0.000000
    23  H    0.000000
    24  O    0.324492
    25  H    0.403253
 Mulliken atomic charges:
              1
     1  P    1.307944
     2  O   -1.010753
     3  O   -1.033346
     4  N   -0.546652
     5  H    0.249732
     6  S   -0.162109
     7  C   -0.083866
     8  H    0.221785
     9  H    0.183891
    10  C   -0.332925
    11  H    0.154357
    12  C    0.144735
    13  H    0.172565
    14  H    0.173800
    15  O   -0.604821
    16  H    0.299183
    17  H    0.304420
    18  O   -0.639906
    19  H    0.352702
    20  H    0.283196
    21  O   -0.626951
    22  H    0.352505
    23  H    0.271539
    24  O   -0.730118
    25  H    0.299092
 Sum of Mulliken charges=  -1.00000
 Atomic charges with hydrogens summed into heavy atoms:
              1
     1  P    1.307944
     2  O   -1.010753
     3  O   -1.033346
     4  N   -0.296920
     5  H    0.000000
     6  S   -0.162109
     7  C    0.321810
     8  H    0.000000
     9  H    0.000000
    10  C   -0.178568
    11  H    0.000000
    12  C    0.491100
    13  H    0.000000
    14  H    0.000000
    15  O   -0.001219
    16  H    0.000000
    17  H    0.000000
    18  O   -0.004008
    19  H    0.000000
    20  H    0.000000
    21  O   -0.002906
    22  H    0.000000
    23  H    0.000000
    24  O   -0.431026
    25  H    0.000000
 Sum of Mulliken charges=  -1.00000
 Electronic spatial extent (au):  <R**2>=  3464.8333
 Charge=    -1.0000 electrons
 Dipole moment (field-independent basis, Debye):
    X=    12.2005    Y=     2.7590    Z=    -1.7223  Tot=    12.6266
 Quadrupole moment (field-independent basis, Debye-Ang):
   XX=  -125.2502   YY=  -126.9552   ZZ=   -95.3362
   XY=    -4.4876   XZ=    -1.0353   YZ=     0.4901
 Traceless Quadrupole moment (field-independent basis, Debye-Ang):
   XX=    -9.4030   YY=   -11.1080   ZZ=    20.5110
   XY=    -4.4876   XZ=    -1.0353   YZ=     0.4901
 Octapole moment (field-independent basis, Debye-Ang**2):
  XXX=   198.8147  YYY=    15.9598  ZZZ=    -2.4090  XYY=    37.6996
  XXY=     1.2976  XXZ=    -6.9442  XZZ=     5.6412  YZZ=     1.0261
  YYZ=   -13.8995  XYZ=     2.3018
 Hexadecapole moment (field-independent basis, Debye-Ang**3):
 XXXX= -3020.7876 YYYY= -1855.2590 ZZZZ=  -496.7133 XXXY=  -388.4043
 XXXZ=   -16.7596 YYYX=   177.8961 YYYZ=   -26.8910 ZZZX=    14.9508
 ZZZY=     1.7366 XXYY=  -813.6658 XXZZ=  -517.2671 YYZZ=  -271.1229
 XXYZ=   -12.6008 YYXZ=    -9.2923 ZZXY=   -12.7734
 N-N= 1.066851538406D+03 E-N=-5.386612648181D+03  KE= 1.362398127140D+03
 Calculating spin-rotation constants.
 Leave Link  601 at Sun Aug  3 15:10:25 2008, MaxMem= 1073741824 cpu:     152.8
 (Enter /usr/local/Chem-Apps/g03_d01/g03/l9999.exe)
 1\1\ SGI ALTIX 4700 1.6GHZ/9MB-MAGELLAN\SP\RB3LYP\Gen\C3H13N1O6P1S1(1-
 )\IK1\03-Aug-2008\0\\#p nmr=giao b3lyp/Gen scf=tight integral=(grid=ul
 trafine) scrf=(pcm,solvent=water,read) guess=read geom=checkpoint\\Mol
 ecule 14, NMR.\\-1,1\P,0,2.4176304969,-0.0814904399,-0.2493759799\O,0,
 3.6757397054,0.7800542294,-0.0569528909\O,0,2.5482024691,-1.5753494253
 ,-0.5664500385\N,0,1.3270990032,0.7018030927,-1.3346043464\H,0,1.47820
 94272,1.7091877988,-1.2606571985\S,0,1.055109573,0.128100026,1.5248775
 654\C,0,-0.0541473408,0.3367387179,-1.0238403354\H,0,-0.7383301669,0.9
 158240486,-1.6563580031\H,0,-0.1884322748,-0.7268651141,-1.2636473786\
 C,0,-0.4149334716,0.5629335776,0.4705372885\H,0,-0.6343184477,1.627252
 8971,0.6389812559\C,0,-1.6194250851,-0.2647889357,0.9007505885\H,0,-1.
 4250873491,-1.324636681,0.6761816773\H,0,-1.7947126291,-0.1541053965,1
 .9829255225\O,0,5.5759747182,-1.4848501303,-0.4089604629\H,0,4.7178015
 988,-1.9211009487,-0.5387090597\H,0,5.2793247248,-0.5719673633,-0.2503
 861463\O,0,2.8316080781,3.3910942913,0.1315653159\H,0,3.2547728183,2.4
 999028735,0.0664425815\H,0,2.3845271547,3.3509889428,0.9852362969\O,0,
 0.5640895777,-3.3113621074,0.3207221841\H,0,1.2775457891,-2.7676001916
 ,-0.0877853227\H,0,0.5308047115,-2.943582823,1.2123315361\O,0,-2.77151
 80563,0.2111130867,0.1698265226\H,0,-3.4677728447,-0.4501920856,0.2441
 550674\\Version=IA64L-G03RevD.01\State=1-A\HF=-1368.2907191\RMSD=3.618
 e-09\Thermal=0.\Dipole=-4.6867832,1.04979,1.2688102\PG=C01 [X(C3H13N1O
 6P1S1)]\\@


 VIRTUE IS LEARNED AT YOUR MOTHER'S KNEE,
 VICES ARE PICKED UP AT SOME OTHER JOINT.
 Job cpu time:  0 days  0 hours 10 minutes 44.3 seconds.
 File lengths (MBytes):  RWF=    235 Int=      0 D2E=      0 Chk=     23 Scr=      1
 Normal termination of Gaussian 03 at Sun Aug  3 15:10:25 2008.
