 Entering Gaussian System, Link 0=/usr/local/Chem-Apps/g03_d01/g03/g03
 Initial command:
 /usr/local/Chem-Apps/g03_d01/g03/l1.exe /scratch/LSF_66559/Gau-32002.inp -scrdir=/scratch/LSF_66559/
 Entering Link 1 = /usr/local/Chem-Apps/g03_d01/g03/l1.exe PID=     32003.
  
 Copyright (c) 1988,1990,1992,1993,1995,1998,2003,2004, Gaussian, Inc.
                  All Rights Reserved.
  
 This is the Gaussian(R) 03 program.  It is based on the
 the Gaussian(R) 98 system (copyright 1998, Gaussian, Inc.),
 the Gaussian(R) 94 system (copyright 1995, Gaussian, Inc.),
 the Gaussian 92(TM) system (copyright 1992, Gaussian, Inc.),
 the Gaussian 90(TM) system (copyright 1990, Gaussian, Inc.),
 the Gaussian 88(TM) system (copyright 1988, Gaussian, Inc.),
 the Gaussian 86(TM) system (copyright 1986, Carnegie Mellon
 University), and the Gaussian 82(TM) system (copyright 1983,
 Carnegie Mellon University). Gaussian is a federally registered
 trademark of Gaussian, Inc.
  
 This software contains proprietary and confidential information,
 including trade secrets, belonging to Gaussian, Inc.
  
 This software is provided under written license and may be
 used, copied, transmitted, or stored only in accord with that
 written license.
  
 The following legend is applicable only to US Government
 contracts under FAR:
  
                    RESTRICTED RIGHTS LEGEND
  
 Use, reproduction and disclosure by the US Government is
 subject to restrictions as set forth in subparagraphs (a)
 and (c) of the Commercial Computer Software - Restricted
 Rights clause in FAR 52.227-19.
  
 Gaussian, Inc.
 340 Quinnipiac St., Bldg. 40, Wallingford CT 06492
  
  
 ---------------------------------------------------------------
 Warning -- This program may not be used in any manner that
 competes with the business of Gaussian, Inc. or will provide
 assistance to any competitor of Gaussian, Inc.  The licensee
 of this program is prohibited from giving any competitor of
 Gaussian, Inc. access to this program.  By using this program,
 the user acknowledges that Gaussian, Inc. is engaged in the
 business of creating and licensing software in the field of
 computational chemistry and represents and warrants to the
 licensee that it is not a competitor of Gaussian, Inc. and that
 it will not use this program in any manner prohibited above.
 ---------------------------------------------------------------
  

 Cite this work as:
 Gaussian 03, Revision D.01,
 M. J. Frisch, G. W. Trucks, H. B. Schlegel, G. E. Scuseria, 
 M. A. Robb, J. R. Cheeseman, J. A. Montgomery, Jr., T. Vreven, 
 K. N. Kudin, J. C. Burant, J. M. Millam, S. S. Iyengar, J. Tomasi, 
 V. Barone, B. Mennucci, M. Cossi, G. Scalmani, N. Rega, 
 G. A. Petersson, H. Nakatsuji, M. Hada, M. Ehara, K. Toyota, 
 R. Fukuda, J. Hasegawa, M. Ishida, T. Nakajima, Y. Honda, O. Kitao, 
 H. Nakai, M. Klene, X. Li, J. E. Knox, H. P. Hratchian, J. B. Cross, 
 V. Bakken, C. Adamo, J. Jaramillo, R. Gomperts, R. E. Stratmann, 
 O. Yazyev, A. J. Austin, R. Cammi, C. Pomelli, J. W. Ochterski, 
 P. Y. Ayala, K. Morokuma, G. A. Voth, P. Salvador, J. J. Dannenberg, 
 V. G. Zakrzewski, S. Dapprich, A. D. Daniels, M. C. Strain, 
 O. Farkas, D. K. Malick, A. D. Rabuck, K. Raghavachari, 
 J. B. Foresman, J. V. Ortiz, Q. Cui, A. G. Baboul, S. Clifford, 
 J. Cioslowski, B. B. Stefanov, G. Liu, A. Liashenko, P. Piskorz, 
 I. Komaromi, R. L. Martin, D. J. Fox, T. Keith, M. A. Al-Laham, 
 C. Y. Peng, A. Nanayakkara, M. Challacombe, P. M. W. Gill, 
 B. Johnson, W. Chen, M. W. Wong, C. Gonzalez, and J. A. Pople, 
 Gaussian, Inc., Wallingford CT, 2004.
 
 ******************************************
 Gaussian 03:  IA64L-G03RevD.01 13-Oct-2005
                28-Jul-2008 
 ******************************************
 %Mem=4GB
 %NProcShared=16
 Will use up to   16 processors via shared memory.
 %Chk=molecule_1.chk
 Default route:  MaxDisk=64GB Cachesize=589840
 -------------------------------------------------------------------
 #p opt=gdiis b3lyp/aug-cc-pVDZ scf=tight guess=read geom=checkpoint
 -------------------------------------------------------------------
 1/4=589840,14=-1,18=20,19=11,26=3,29=2,38=1/1,3;
 2/4=589840,9=110,40=1/2;
 3/4=589840,5=16,7=10,11=2,16=1,25=1,30=1,74=-5/1,2,3;
 4/4=589840,5=1/1;
 5/4=589840,5=2,32=2,38=6/2;
 6/4=589840,7=2,8=2,9=2,10=2,28=1/1;
 7/4=589840/1,2,3,16;
 1/4=589840,14=-1,18=20,19=11/3(3);
 2/4=589840,9=110/2;
 6/4=589840,7=2,8=2,9=2,10=2,19=2,28=1/1;
 99/4=589840/99;
 2/4=589840,9=110/2;
 3/4=589840,5=16,7=10,11=2,16=1,25=1,30=1,74=-5/1,2,3;
 4/4=589840,5=5,16=3/1;
 5/4=589840,5=2,32=2,38=5/2;
 7/4=589840/1,2,3,16;
 1/4=589840,14=-1,18=20,19=11/3(-5);
 2/4=589840,9=110/2;
 6/4=589840,7=2,8=2,9=2,10=2,19=2,28=1/1;
 99/4=589840,9=1/99;
 Leave Link    1 at Mon Jul 28 08:42:41 2008, MaxMem=  536870912 cpu:       1.7
 (Enter /usr/local/Chem-Apps/g03_d01/g03/l101.exe)
 ---------------------
 Molecule 1, geometry.
 ---------------------
 Redundant internal coordinates taken from checkpoint file:
 molecule_1.chk
 Charge = -2 Multiplicity = 1
 C,0,2.1711019507,-0.4003613203,-0.0482046584
 H,0,2.2537394798,0.1962878243,0.8779713216
 H,0,2.413737375,0.2833706334,-0.8909135013
 N,0,0.8095928311,-0.9368858462,-0.1293849679
 H,0,0.6759694491,-1.4248734171,-1.0158861561
 P,0,-0.5655833704,0.0775987426,0.1630115842
 O,0,-1.6781997471,-0.5947365758,-0.6756052807
 O,0,-0.2491700658,1.5127760195,-0.324336162
 S,0,-0.9207857598,0.0429051413,2.1924427483
 C,0,3.1780750308,-1.5099817204,0.0039096226
 H,0,3.061047446,-2.2108863627,0.8292334304
 C,0,4.1629243598,-1.6883217043,-0.8712972211
 H,0,4.8653741948,-2.50738275,-0.7781089726
 H,0,4.3000917636,-1.0150796513,-1.7102778679
 O,0,-1.9269768944,1.4571861368,-2.5696308027
 H,0,-2.0801084503,0.5986381808,-2.1260591548
 H,0,-1.262308578,1.7872330388,-1.9318997413
 O,0,-3.6104818592,-2.389184193,-0.1797111442
 H,0,-2.896917798,-1.7285344026,-0.3734282178
 H,0,-3.743478461,-2.33153271,0.7765186871
 O,0,1.3349844488,3.5449921923,0.4568035763
 H,0,0.7605766532,2.798391076,0.1497562871
 H,0,1.1675947153,3.6058258962,1.4079229729
 Recover connectivity data from disk.
                    Isotopes and Nuclear Properties:
 (Nuclear quadrupole moments (NQMom) in fm**2, nuclear magnetic moments (NMagM)
  in nuclear magnetons)

  Atom         1           2           3           4           5           6           7           8           9          10
 IAtWgt=          12           1           1          14           1          31          16          16          32          12
 AtmWgt=  12.0000000   1.0078250   1.0078250  14.0030740   1.0078250  30.9737634  15.9949146  15.9949146  31.9720718  12.0000000
 NucSpn=           0           1           1           2           1           1           0           0           0           0
 AtZEff=  -3.6000000  -1.0000000  -1.0000000  -4.5500000  -1.0000000 -12.9400000  -5.6000000  -5.6000000 -13.6000000  -3.6000000
 NQMom=    0.0000000   0.0000000   0.0000000   2.0440000   0.0000000   0.0000000   0.0000000   0.0000000   0.0000000   0.0000000
 NMagM=    0.0000000   2.7928460   2.7928460   0.4037610   2.7928460   1.1316000   0.0000000   0.0000000   0.0000000   0.0000000

  Atom        11          12          13          14          15          16          17          18          19          20
 IAtWgt=           1          12           1           1          16           1           1          16           1           1
 AtmWgt=   1.0078250  12.0000000   1.0078250   1.0078250  15.9949146   1.0078250   1.0078250  15.9949146   1.0078250   1.0078250
 NucSpn=           1           0           1           1           0           1           1           0           1           1
 AtZEff=  -1.0000000  -3.6000000  -1.0000000  -1.0000000  -5.6000000  -1.0000000  -1.0000000  -5.6000000  -1.0000000  -1.0000000
 NQMom=    0.0000000   0.0000000   0.0000000   0.0000000   0.0000000   0.0000000   0.0000000   0.0000000   0.0000000   0.0000000
 NMagM=    2.7928460   0.0000000   2.7928460   2.7928460   0.0000000   2.7928460   2.7928460   0.0000000   2.7928460   2.7928460

  Atom        21          22          23
 IAtWgt=          16           1           1
 AtmWgt=  15.9949146   1.0078250   1.0078250
 NucSpn=           0           1           1
 AtZEff=  -5.6000000  -1.0000000  -1.0000000
 NQMom=    0.0000000   0.0000000   0.0000000
 NMagM=    0.0000000   2.7928460   2.7928460
 Leave Link  101 at Mon Jul 28 08:42:41 2008, MaxMem=  536870912 cpu:       0.8
 (Enter /usr/local/Chem-Apps/g03_d01/g03/l103.exe)

 GradGradGradGradGradGradGradGradGradGradGradGradGradGradGradGradGradGrad
 Berny optimization.
 Initialization pass.
                           ----------------------------
                           !    Initial Parameters    !
                           ! (Angstroms and Degrees)  !
 --------------------------                            --------------------------
 ! Name  Definition              Value          Derivative Info.                !
 --------------------------------------------------------------------------------
 ! R1    R(1,2)                  1.1048         estimate D2E/DX2                !
 ! R2    R(1,3)                  1.112          estimate D2E/DX2                !
 ! R3    R(1,4)                  1.4657         estimate D2E/DX2                !
 ! R4    R(1,10)                 1.4993         estimate D2E/DX2                !
 ! R5    R(4,5)                  1.0207         estimate D2E/DX2                !
 ! R6    R(4,6)                  1.7337         estimate D2E/DX2                !
 ! R7    R(6,7)                  1.547          estimate D2E/DX2                !
 ! R8    R(6,8)                  1.5483         estimate D2E/DX2                !
 ! R9    R(6,9)                  2.0606         estimate D2E/DX2                !
 ! R10   R(7,16)                 1.9208         estimate D2E/DX2                !
 ! R11   R(7,19)                 1.6918         estimate D2E/DX2                !
 ! R12   R(8,17)                 1.9199         estimate D2E/DX2                !
 ! R13   R(8,22)                 1.7021         estimate D2E/DX2                !
 ! R14   R(10,11)                1.0891         estimate D2E/DX2                !
 ! R15   R(10,12)                1.3296         estimate D2E/DX2                !
 ! R16   R(12,13)                1.083          estimate D2E/DX2                !
 ! R17   R(12,14)                1.0844         estimate D2E/DX2                !
 ! R18   R(15,16)                0.9784         estimate D2E/DX2                !
 ! R19   R(15,17)                0.9785         estimate D2E/DX2                !
 ! R20   R(18,19)                0.9915         estimate D2E/DX2                !
 ! R21   R(18,20)                0.9672         estimate D2E/DX2                !
 ! R22   R(21,22)                0.9908         estimate D2E/DX2                !
 ! R23   R(21,23)                0.9677         estimate D2E/DX2                !
 ! A1    A(2,1,3)              106.6738         estimate D2E/DX2                !
 ! A2    A(2,1,4)              108.2766         estimate D2E/DX2                !
 ! A3    A(2,1,10)             108.6812         estimate D2E/DX2                !
 ! A4    A(3,1,4)              112.6935         estimate D2E/DX2                !
 ! A5    A(3,1,10)             109.5634         estimate D2E/DX2                !
 ! A6    A(4,1,10)             110.7874         estimate D2E/DX2                !
 ! A7    A(1,4,5)              110.1648         estimate D2E/DX2                !
 ! A8    A(1,4,6)              120.883          estimate D2E/DX2                !
 ! A9    A(5,4,6)              108.8073         estimate D2E/DX2                !
 ! A10   A(4,6,7)              102.9874         estimate D2E/DX2                !
 ! A11   A(4,6,8)              109.0991         estimate D2E/DX2                !
 ! A12   A(4,6,9)              107.0366         estimate D2E/DX2                !
 ! A13   A(7,6,8)              112.2835         estimate D2E/DX2                !
 ! A14   A(7,6,9)              113.741          estimate D2E/DX2                !
 ! A15   A(8,6,9)              111.1512         estimate D2E/DX2                !
 ! A16   A(6,7,16)             106.8471         estimate D2E/DX2                !
 ! A17   A(6,7,19)             135.4421         estimate D2E/DX2                !
 ! A18   A(16,7,19)            113.6109         estimate D2E/DX2                !
 ! A19   A(6,8,17)             106.7511         estimate D2E/DX2                !
 ! A20   A(6,8,22)             137.1948         estimate D2E/DX2                !
 ! A21   A(17,8,22)            115.9953         estimate D2E/DX2                !
 ! A22   A(1,10,11)            115.497          estimate D2E/DX2                !
 ! A23   A(1,10,12)            125.0214         estimate D2E/DX2                !
 ! A24   A(11,10,12)           119.4795         estimate D2E/DX2                !
 ! A25   A(10,12,13)           121.684          estimate D2E/DX2                !
 ! A26   A(10,12,14)           121.3124         estimate D2E/DX2                !
 ! A27   A(13,12,14)           117.0032         estimate D2E/DX2                !
 ! A28   A(16,15,17)            96.1319         estimate D2E/DX2                !
 ! A29   A(7,16,15)            148.7335         estimate D2E/DX2                !
 ! A30   A(8,17,15)            148.8671         estimate D2E/DX2                !
 ! A31   A(19,18,20)           104.62           estimate D2E/DX2                !
 ! A32   A(7,19,18)            179.0135         estimate D2E/DX2                !
 ! A33   A(22,21,23)           104.5779         estimate D2E/DX2                !
 ! A34   A(8,22,21)            178.0409         estimate D2E/DX2                !
 ! D1    D(2,1,4,5)            174.9888         estimate D2E/DX2                !
 ! D2    D(2,1,4,6)             46.6865         estimate D2E/DX2                !
 ! D3    D(3,1,4,5)             57.2377         estimate D2E/DX2                !
 ! D4    D(3,1,4,6)            -71.0646         estimate D2E/DX2                !
 ! D5    D(10,1,4,5)           -65.9214         estimate D2E/DX2                !
 ! D6    D(10,1,4,6)           165.7763         estimate D2E/DX2                !
 ! D7    D(2,1,10,11)           60.768          estimate D2E/DX2                !
 ! D8    D(2,1,10,12)         -119.7576         estimate D2E/DX2                !
 ! D9    D(3,1,10,11)          176.9734         estimate D2E/DX2                !
 ! D10   D(3,1,10,12)           -3.5521         estimate D2E/DX2                !
 ! D11   D(4,1,10,11)          -58.0775         estimate D2E/DX2                !
 ! D12   D(4,1,10,12)          121.3969         estimate D2E/DX2                !
 ! D13   D(1,4,6,7)            152.5131         estimate D2E/DX2                !
 ! D14   D(1,4,6,8)             33.0625         estimate D2E/DX2                !
 ! D15   D(1,4,6,9)            -87.3009         estimate D2E/DX2                !
 ! D16   D(5,4,6,7)             23.6091         estimate D2E/DX2                !
 ! D17   D(5,4,6,8)            -95.8415         estimate D2E/DX2                !
 ! D18   D(5,4,6,9)            143.7951         estimate D2E/DX2                !
 ! D19   D(4,6,7,16)          -111.1853         estimate D2E/DX2                !
 ! D20   D(4,6,7,19)            94.1296         estimate D2E/DX2                !
 ! D21   D(8,6,7,16)             6.0347         estimate D2E/DX2                !
 ! D22   D(8,6,7,19)          -148.6504         estimate D2E/DX2                !
 ! D23   D(9,6,7,16)           133.3529         estimate D2E/DX2                !
 ! D24   D(9,6,7,19)           -21.3323         estimate D2E/DX2                !
 ! D25   D(4,6,8,17)           107.1421         estimate D2E/DX2                !
 ! D26   D(4,6,8,22)           -69.805          estimate D2E/DX2                !
 ! D27   D(7,6,8,17)            -6.3686         estimate D2E/DX2                !
 ! D28   D(7,6,8,22)           176.6844         estimate D2E/DX2                !
 ! D29   D(9,6,8,17)          -135.0561         estimate D2E/DX2                !
 ! D30   D(9,6,8,22)            47.9968         estimate D2E/DX2                !
 ! D31   D(6,7,16,15)           -3.364          estimate D2E/DX2                !
 ! D32   D(19,7,16,15)         157.5236         estimate D2E/DX2                !
 ! D33   D(6,7,19,18)           22.0351         estimate D2E/DX2                !
 ! D34   D(16,7,19,18)        -131.4373         estimate D2E/DX2                !
 ! D35   D(6,8,17,15)            5.2223         estimate D2E/DX2                !
 ! D36   D(22,8,17,15)        -177.0852         estimate D2E/DX2                !
 ! D37   D(6,8,22,21)          -53.4652         estimate D2E/DX2                !
 ! D38   D(17,8,22,21)         129.7874         estimate D2E/DX2                !
 ! D39   D(1,10,12,13)         179.6219         estimate D2E/DX2                !
 ! D40   D(1,10,12,14)          -0.1441         estimate D2E/DX2                !
 ! D41   D(11,10,12,13)         -0.923          estimate D2E/DX2                !
 ! D42   D(11,10,12,14)        179.3109         estimate D2E/DX2                !
 ! D43   D(17,15,16,7)           0.4299         estimate D2E/DX2                !
 ! D44   D(16,15,17,8)          -1.5373         estimate D2E/DX2                !
 ! D45   D(20,18,19,7)           0.252          estimate D2E/DX2                !
 ! D46   D(23,21,22,8)           5.8849         estimate D2E/DX2                !
 --------------------------------------------------------------------------------
 Trust Radius=3.00D-01 FncErr=1.00D-07 GrdErr=1.00D-06
 Number of steps in this run= 113 maximum allowed number of steps= 138.
 GradGradGradGradGradGradGradGradGradGradGradGradGradGradGradGradGradGrad

 Leave Link  103 at Mon Jul 28 08:42:41 2008, MaxMem=  536870912 cpu:       0.8
 (Enter /usr/local/Chem-Apps/g03_d01/g03/l202.exe)
                          Input orientation:                          
 ---------------------------------------------------------------------
 Center     Atomic     Atomic              Coordinates (Angstroms)
 Number     Number      Type              X           Y           Z
 ---------------------------------------------------------------------
    1          6             0        2.171102   -0.400361   -0.048205
    2          1             0        2.253739    0.196288    0.877971
    3          1             0        2.413737    0.283371   -0.890914
    4          7             0        0.809593   -0.936886   -0.129385
    5          1             0        0.675969   -1.424873   -1.015886
    6         15             0       -0.565583    0.077599    0.163012
    7          8             0       -1.678200   -0.594737   -0.675605
    8          8             0       -0.249170    1.512776   -0.324336
    9         16             0       -0.920786    0.042905    2.192443
   10          6             0        3.178075   -1.509982    0.003910
   11          1             0        3.061047   -2.210886    0.829233
   12          6             0        4.162924   -1.688322   -0.871297
   13          1             0        4.865374   -2.507383   -0.778109
   14          1             0        4.300092   -1.015080   -1.710278
   15          8             0       -1.926977    1.457186   -2.569631
   16          1             0       -2.080108    0.598638   -2.126059
   17          1             0       -1.262309    1.787233   -1.931900
   18          8             0       -3.610482   -2.389184   -0.179711
   19          1             0       -2.896918   -1.728534   -0.373428
   20          1             0       -3.743478   -2.331533    0.776519
   21          8             0        1.334984    3.544992    0.456804
   22          1             0        0.760577    2.798391    0.149756
   23          1             0        1.167595    3.605826    1.407923
 ---------------------------------------------------------------------
                    Distance matrix (angstroms):
                    1          2          3          4          5
     1  C    0.000000
     2  H    1.104817   0.000000
     3  H    1.111989   1.778240   0.000000
     4  N    1.465659   2.093898   2.154584   0.000000
     5  H    2.054618   2.950291   2.439990   1.020721   0.000000
     6  P    2.786127   2.910985   3.166931   1.733720   2.277867
     7  O    3.904937   4.301101   4.190630   2.569929   2.519331
     8  O    3.097428   3.072986   2.987227   2.675786   3.156566
     9  S    3.844055   3.439327   4.547962   3.056973   3.872645
    10  C    1.499323   2.128318   2.145002   2.440474   2.703287
    11  H    2.199978   2.539411   3.098263   2.758818   3.116228
    12  C    2.510713   3.202605   2.635832   3.515668   3.499881
    13  H    3.497342   4.107685   3.716390   4.397348   4.333529
    14  H    2.770011   3.514826   2.432214   3.832613   3.712731
    15  O    5.157744   5.563651   4.799764   4.378949   4.182788
    16  H    4.836142   5.288509   4.671149   3.833395   3.594864
    17  H    4.485776   4.773791   4.105919   3.868160   3.861817
    18  O    6.115507   6.495572   6.628693   4.652823   4.472443
    19  H    5.249251   5.639168   5.702509   3.797958   3.642868
    20  H    6.276293   6.508978   6.894154   4.847284   4.854510
    21  O    4.064473   3.497901   3.690288   4.550482   5.225197
    22  H    3.501541   3.087195   3.184535   3.746013   4.381991
    23  H    4.379140   3.617390   4.228029   4.809128   5.605754
                    6          7          8          9         10
     6  P    0.000000
     7  O    1.547006   0.000000
     8  O    1.548341   2.570433   0.000000
     9  S    2.060574   3.034133   2.990947   0.000000
    10  C    4.069484   4.988268   4.581574   4.899163   0.000000
    11  H    4.339754   5.228474   5.114091   4.774192   1.089092
    12  C    5.152383   5.945835   5.478391   6.182860   1.329556
    13  H    6.087950   6.818144   6.521208   6.986257   2.110294
    14  H    5.327096   6.081711   5.385784   6.603645   2.107674
    15  O    3.350222   2.803500   2.803475   5.068526   6.441176
    16  H    2.793763   1.920805   2.726571   4.505810   6.052399
    17  H    2.792298   2.724889   1.919905   4.491049   5.859692
    18  O    3.933686   2.683220   5.152148   4.333202   6.847716
    19  H    2.997500   1.691769   4.185579   3.691448   6.090623
    20  H    4.034764   3.064392   5.310441   3.950999   7.012829
    21  O    3.965008   5.243947   2.692513   4.512821   5.399524
    22  H    3.026811   4.259362   1.702104   3.819980   4.942433
    23  H    4.123360   5.484921   3.064115   4.203714   5.673162
                   11         12         13         14         15
    11  H    0.000000
    12  C    2.092609   0.000000
    13  H    2.434554   1.083042   0.000000
    14  H    3.068273   1.084416   1.848094   0.000000
    15  O    7.063103   7.061548   8.066188   6.754774   0.000000
    16  H    6.561910   6.766097   7.726841   6.594233   0.978422
    17  H    6.503862   6.529740   7.571225   6.232365   0.978476
    18  O    6.749745   7.835518   8.497775   8.173614   4.831198
    19  H    6.097246   7.077490   7.811757   7.354803   3.989098
    20  H    6.805800   8.101865   8.749865   8.521516   5.371293
    21  O    6.020642   6.094971   7.114767   5.855114   4.915143
    22  H    5.553982   5.722684   6.772114   5.525437   4.051770
    23  H    6.144444   6.495756   7.471521   6.394410   5.478500
                   16         17         18         19         20
    16  H    0.000000
    17  H    1.455765   0.000000
    18  O    3.880386   5.101622   0.000000
    19  H    3.025661   4.178684   0.991543   0.000000
    20  H    4.447208   5.518692   0.967154   1.550048   0.000000
    21  O    5.197600   3.942277   7.750951   6.812368   7.773451
    22  H    4.252968   3.073727   6.791586   5.843290   6.855324
    23  H    5.663902   4.512884   7.828841   6.938939   7.731076
                   21         22         23
    21  O    0.000000
    22  H    0.990775   0.000000
    23  H    0.967651   1.549386   0.000000
 Stoichiometry    C3H12NO5PS(2-)
 Framework group  C1[X(C3H12NO5PS)]
 Deg. of freedom    63
 Full point group                 C1
 Largest Abelian subgroup         C1      NOp   1
 Largest concise Abelian subgroup C1      NOp   1
                         Standard orientation:                         
 ---------------------------------------------------------------------
 Center     Atomic     Atomic              Coordinates (Angstroms)
 Number     Number      Type              X           Y           Z
 ---------------------------------------------------------------------
    1          6             0        2.171102   -0.400361   -0.048205
    2          1             0        2.253739    0.196288    0.877971
    3          1             0        2.413737    0.283371   -0.890914
    4          7             0        0.809593   -0.936886   -0.129385
    5          1             0        0.675969   -1.424873   -1.015886
    6         15             0       -0.565583    0.077599    0.163012
    7          8             0       -1.678200   -0.594737   -0.675605
    8          8             0       -0.249170    1.512776   -0.324336
    9         16             0       -0.920786    0.042905    2.192443
   10          6             0        3.178075   -1.509982    0.003910
   11          1             0        3.061047   -2.210886    0.829233
   12          6             0        4.162924   -1.688322   -0.871297
   13          1             0        4.865374   -2.507383   -0.778109
   14          1             0        4.300092   -1.015080   -1.710278
   15          8             0       -1.926977    1.457186   -2.569631
   16          1             0       -2.080108    0.598638   -2.126059
   17          1             0       -1.262309    1.787233   -1.931900
   18          8             0       -3.610482   -2.389184   -0.179711
   19          1             0       -2.896918   -1.728534   -0.373428
   20          1             0       -3.743478   -2.331533    0.776519
   21          8             0        1.334984    3.544992    0.456804
   22          1             0        0.760577    2.798391    0.149756
   23          1             0        1.167595    3.605826    1.407923
 ---------------------------------------------------------------------
 Rotational constants (GHZ):      0.6380109      0.4326831      0.3716287
 Leave Link  202 at Mon Jul 28 08:42:41 2008, MaxMem=  536870912 cpu:       0.4
 (Enter /usr/local/Chem-Apps/g03_d01/g03/l301.exe)
 Standard basis: Aug-CC-pVDZ (5D, 7F)
 There are   369 symmetry adapted basis functions of A   symmetry.
 Integral buffers will be    131072 words long.
 Raffenetti 2 integral format.
 Two-electron integral symmetry is turned on.
   369 basis functions,   685 primitive gaussians,   391 cartesian basis functions
    55 alpha electrons       55 beta electrons
       nuclear repulsion energy       876.9509378776 Hartrees.
 IExCor= 402 DFT=T Ex=B+HF Corr=LYP ExCW=0 ScaHFX=  0.200000
 ScaDFX=  0.800000  0.720000  1.000000  0.810000
 IRadAn=      0 IRanWt=     -1 IRanGd=            0 ICorTp=0
 NAtoms=   23 NActive=   23 NUniq=   23 SFac= 7.50D-01 NAtFMM=   80 NAOKFM=F Big=F
 Leave Link  301 at Mon Jul 28 08:42:41 2008, MaxMem=  536870912 cpu:       0.4
 (Enter /usr/local/Chem-Apps/g03_d01/g03/l302.exe)
 NPDir=0 NMtPBC=     1 NCelOv=     1 NCel=       1 NClECP=     1 NCelD=      1
         NCelK=      1 NCelE2=     1 NClLst=     1 CellRange=     0.0.
 One-electron integrals computed using PRISM.
 NBasis=   369 RedAO= T  NBF=   369
 NBsUse=   369 1.00D-06 NBFU=   369
 Precomputing XC quadrature grid using
 IXCGrd= 2 IRadAn=           0 IRanWt=          -1 IRanGd=           0.
 NRdTot=    1506 NPtTot=      192458 NUsed=      203093 NTot=      203125
 NSgBfM=   389   389   389   389.
 Leave Link  302 at Mon Jul 28 08:42:42 2008, MaxMem=  536870912 cpu:      11.4
 (Enter /usr/local/Chem-Apps/g03_d01/g03/l303.exe)
 DipDrv:  MaxL=1.
 Leave Link  303 at Mon Jul 28 08:42:43 2008, MaxMem=  536870912 cpu:       1.2
 (Enter /usr/local/Chem-Apps/g03_d01/g03/l401.exe)
 Initial guess read from the checkpoint file:
 molecule_1.chk
 Guess basis will be translated and rotated to current coordinates.
 Initial guess orbital symmetries:
       Occupied  (A) (A) (A) (A) (A) (A) (A) (A) (A) (A) (A) (A)
                 (A) (A) (A) (A) (A) (A) (A) (A) (A) (A) (A) (A)
                 (A) (A) (A) (A) (A) (A) (A) (A) (A) (A) (A) (A)
                 (A) (A) (A) (A) (A) (A) (A) (A) (A) (A) (A) (A)
                 (A) (A) (A) (A) (A) (A) (A)
       Virtual   (A) (A) (A) (A) (A) (A) (A) (A) (A) (A) (A) (A)
                 (A) (A) (A) (A) (A) (A) (A) (A) (A) (A) (A) (A)
                 (A) (A) (A) (A) (A) (A) (A) (A) (A) (A) (A) (A)
                 (A) (A) (A) (A) (A) (A) (A) (A) (A) (A) (A) (A)
                 (A) (A) (A) (A) (A) (A) (A) (A) (A) (A) (A) (A)
                 (A) (A) (A) (A) (A) (A) (A) (A) (A) (A) (A) (A)
                 (A) (A) (A) (A) (A) (A) (A) (A) (A) (A) (A) (A)
                 (A) (A) (A) (A) (A) (A) (A) (A) (A) (A) (A) (A)
                 (A) (A) (A) (A) (A) (A) (A) (A) (A) (A) (A) (A)
                 (A) (A) (A) (A) (A) (A) (A) (A) (A) (A) (A) (A)
                 (A) (A) (A) (A) (A) (A) (A) (A) (A) (A) (A) (A)
                 (A) (A) (A) (A) (A) (A) (A) (A) (A) (A) (A) (A)
                 (A) (A) (A) (A) (A) (A) (A) (A) (A) (A) (A) (A)
                 (A) (A) (A) (A) (A) (A) (A) (A) (A) (A) (A) (A)
                 (A) (A) (A) (A) (A) (A) (A) (A) (A) (A) (A) (A)
                 (A) (A) (A) (A) (A) (A) (A) (A) (A) (A) (A) (A)
                 (A) (A) (A) (A) (A) (A) (A) (A) (A) (A) (A) (A)
                 (A) (A) (A) (A) (A) (A) (A) (A) (A) (A) (A) (A)
                 (A) (A) (A) (A) (A) (A) (A) (A) (A) (A) (A) (A)
                 (A) (A) (A) (A) (A) (A) (A) (A) (A) (A) (A) (A)
                 (A) (A) (A) (A) (A) (A) (A) (A) (A) (A) (A) (A)
                 (A) (A) (A) (A) (A) (A) (A) (A) (A) (A) (A) (A)
                 (A) (A) (A) (A) (A) (A) (A) (A) (A) (A) (A) (A)
                 (A) (A) (A) (A) (A) (A) (A) (A) (A) (A) (A) (A)
                 (A) (A) (A) (A) (A) (A) (A) (A) (A) (A) (A) (A)
                 (A) (A) (A) (A) (A) (A) (A) (A) (A) (A) (A) (A)
                 (A) (A)
 The electronic state of the initial guess is 1-A.
 Leave Link  401 at Mon Jul 28 08:42:44 2008, MaxMem=  536870912 cpu:      14.5
 (Enter /usr/local/Chem-Apps/g03_d01/g03/l502.exe)
 Closed shell SCF:
 Requested convergence on RMS density matrix=1.00D-08 within 128 cycles.
 Requested convergence on MAX density matrix=1.00D-06.
 Requested convergence on             energy=1.00D-06.
 No special actions if energy rises.
 Using DIIS extrapolation, IDIIS=  1040.
 Integral symmetry usage will be decided dynamically.
       203092 words used for storage of precomputed grid.
 IEnd=    764268 IEndB=    764268 NGot= 536870912 MDV= 536276557
 LenX= 536276557
 Fock matrices will be formed incrementally for  20 cycles.

 Cycle   1  Pass 1  IDiag  1:
 Petite list used in FoFDir.
 MinBra= 0 MaxBra= 2 Meth= 1.
 IRaf=       0 NMat=   1 IRICut=       1 DoRegI=T DoRafI=F ISym2E= 1 JSym2E=1.
 E= -1292.20118208862    
 DIIS: error= 2.20D-03 at cycle   1 NSaved=   1.
 NSaved= 1 IEnMin= 1 EnMin= -1292.20118208862     IErMin= 1 ErrMin= 2.20D-03
 ErrMax= 2.20D-03 EMaxC= 1.00D-01 BMatC= 8.72D-03 BMatP= 8.72D-03
 IDIUse=3 WtCom= 9.78D-01 WtEn= 2.20D-02
 Coeff-Com:  0.100D+01
 Coeff-En:   0.100D+01
 Coeff:      0.100D+01
 Gap=     0.114 Goal=   None    Shift=    0.000
 GapD=    0.114 DampG=1.000 DampE=1.000 DampFc=1.0000 IDamp=-1.
 RMSDP=5.94D-03 MaxDP=4.55D-01              OVMax= 4.83D-02

 Cycle   2  Pass 1  IDiag  1:
 RMSU=  5.67D-03    CP:  1.10D+00
 E= -1292.21217003995     Delta-E=       -0.010987951331 Rises=F Damp=F
 DIIS: error= 1.65D-03 at cycle   2 NSaved=   2.
 NSaved= 2 IEnMin= 2 EnMin= -1292.21217003995     IErMin= 2 ErrMin= 1.65D-03
 ErrMax= 1.65D-03 EMaxC= 1.00D-01 BMatC= 3.10D-03 BMatP= 8.72D-03
 IDIUse=3 WtCom= 9.84D-01 WtEn= 1.65D-02
 Coeff-Com:  0.319D+00 0.681D+00
 Coeff-En:   0.000D+00 0.100D+01
 Coeff:      0.314D+00 0.686D+00
 Gap=     0.066 Goal=   None    Shift=    0.000
 RMSDP=5.90D-04 MaxDP=3.28D-02 DE=-1.10D-02 OVMax= 3.30D-02

 Cycle   3  Pass 1  IDiag  1:
 RMSU=  5.90D-04    CP:  1.10D+00  9.99D-01
 E= -1292.21385161645     Delta-E=       -0.001681576497 Rises=F Damp=F
 DIIS: error= 1.23D-03 at cycle   3 NSaved=   3.
 NSaved= 3 IEnMin= 3 EnMin= -1292.21385161645     IErMin= 3 ErrMin= 1.23D-03
 ErrMax= 1.23D-03 EMaxC= 1.00D-01 BMatC= 2.18D-03 BMatP= 3.10D-03
 IDIUse=3 WtCom= 9.88D-01 WtEn= 1.23D-02
 Coeff-Com:  0.624D-01 0.442D+00 0.495D+00
 Coeff-En:   0.000D+00 0.375D+00 0.625D+00
 Coeff:      0.616D-01 0.441D+00 0.497D+00
 Gap=     0.064 Goal=   None    Shift=    0.000
 RMSDP=2.21D-04 MaxDP=1.83D-02 DE=-1.68D-03 OVMax= 1.81D-02

 Cycle   4  Pass 1  IDiag  1:
 RMSU=  1.43D-04    CP:  1.10D+00  1.02D+00  7.86D-01
 E= -1292.21594604416     Delta-E=       -0.002094427713 Rises=F Damp=F
 DIIS: error= 2.09D-04 at cycle   4 NSaved=   4.
 NSaved= 4 IEnMin= 4 EnMin= -1292.21594604416     IErMin= 4 ErrMin= 2.09D-04
 ErrMax= 2.09D-04 EMaxC= 1.00D-01 BMatC= 9.74D-05 BMatP= 2.18D-03
 IDIUse=3 WtCom= 9.98D-01 WtEn= 2.09D-03
 Coeff-Com:  0.723D-02 0.174D+00 0.244D+00 0.574D+00
 Coeff-En:   0.000D+00 0.000D+00 0.000D+00 0.100D+01
 Coeff:      0.721D-02 0.174D+00 0.243D+00 0.575D+00
 Gap=     0.061 Goal=   None    Shift=    0.000
 RMSDP=6.81D-05 MaxDP=3.52D-03 DE=-2.09D-03 OVMax= 4.01D-03

 Cycle   5  Pass 1  IDiag  1:
 RMSU=  5.42D-05    CP:  1.10D+00  1.02D+00  7.52D-01  7.82D-01
 E= -1292.21603218521     Delta-E=       -0.000086141046 Rises=F Damp=F
 DIIS: error= 8.81D-05 at cycle   5 NSaved=   5.
 NSaved= 5 IEnMin= 5 EnMin= -1292.21603218521     IErMin= 5 ErrMin= 8.81D-05
 ErrMax= 8.81D-05 EMaxC= 1.00D-01 BMatC= 1.22D-05 BMatP= 9.74D-05
 IDIUse=1 WtCom= 1.00D+00 WtEn= 0.00D+00
 Coeff-Com: -0.144D-02 0.573D-01 0.824D-01 0.308D+00 0.553D+00
 Coeff:     -0.144D-02 0.573D-01 0.824D-01 0.308D+00 0.553D+00
 Gap=     0.062 Goal=   None    Shift=    0.000
 RMSDP=1.86D-05 MaxDP=9.54D-04 DE=-8.61D-05 OVMax= 1.20D-03

 Cycle   6  Pass 1  IDiag  1:
 RMSU=  1.18D-05    CP:  1.10D+00  1.02D+00  7.62D-01  8.19D-01  7.83D-01
 E= -1292.21604466449     Delta-E=       -0.000012479285 Rises=F Damp=F
 DIIS: error= 2.39D-05 at cycle   6 NSaved=   6.
 NSaved= 6 IEnMin= 6 EnMin= -1292.21604466449     IErMin= 6 ErrMin= 2.39D-05
 ErrMax= 2.39D-05 EMaxC= 1.00D-01 BMatC= 6.43D-07 BMatP= 1.22D-05
 IDIUse=1 WtCom= 1.00D+00 WtEn= 0.00D+00
 Coeff-Com: -0.932D-03 0.156D-01 0.208D-01 0.960D-01 0.260D+00 0.609D+00
 Coeff:     -0.932D-03 0.156D-01 0.208D-01 0.960D-01 0.260D+00 0.609D+00
 Gap=     0.062 Goal=   None    Shift=    0.000
 RMSDP=4.50D-06 MaxDP=1.95D-04 DE=-1.25D-05 OVMax= 2.15D-04

 Cycle   7  Pass 1  IDiag  1:
 RMSU=  3.82D-06    CP:  1.10D+00  1.02D+00  7.62D-01  8.30D-01  7.98D-01
                    CP:  9.11D-01
 E= -1292.21604505805     Delta-E=       -0.000000393555 Rises=F Damp=F
 DIIS: error= 9.68D-06 at cycle   7 NSaved=   7.
 NSaved= 7 IEnMin= 7 EnMin= -1292.21604505805     IErMin= 7 ErrMin= 9.68D-06
 ErrMax= 9.68D-06 EMaxC= 1.00D-01 BMatC= 1.84D-07 BMatP= 6.43D-07
 IDIUse=1 WtCom= 1.00D+00 WtEn= 0.00D+00
 Coeff-Com: -0.482D-03 0.361D-02 0.419D-02 0.271D-01 0.111D+00 0.400D+00
 Coeff-Com:  0.455D+00
 Coeff:     -0.482D-03 0.361D-02 0.419D-02 0.271D-01 0.111D+00 0.400D+00
 Coeff:      0.455D+00
 Gap=     0.062 Goal=   None    Shift=    0.000
 RMSDP=2.03D-06 MaxDP=9.12D-05 DE=-3.94D-07 OVMax= 9.62D-05

 Cycle   8  Pass 1  IDiag  1:
 RMSU=  1.27D-06    CP:  1.10D+00  1.02D+00  7.61D-01  8.26D-01  8.21D-01
                    CP:  9.26D-01  8.28D-01
 E= -1292.21604522518     Delta-E=       -0.000000167132 Rises=F Damp=F
 DIIS: error= 2.34D-06 at cycle   8 NSaved=   8.
 NSaved= 8 IEnMin= 8 EnMin= -1292.21604522518     IErMin= 8 ErrMin= 2.34D-06
 ErrMax= 2.34D-06 EMaxC= 1.00D-01 BMatC= 7.45D-09 BMatP= 1.84D-07
 IDIUse=1 WtCom= 1.00D+00 WtEn= 0.00D+00
 Coeff-Com: -0.146D-03 0.353D-03 0.310D-03 0.402D-02 0.315D-01 0.140D+00
 Coeff-Com:  0.221D+00 0.604D+00
 Coeff:     -0.146D-03 0.353D-03 0.310D-03 0.402D-02 0.315D-01 0.140D+00
 Coeff:      0.221D+00 0.604D+00
 Gap=     0.062 Goal=   None    Shift=    0.000
 RMSDP=5.28D-07 MaxDP=1.78D-05 DE=-1.67D-07 OVMax= 2.08D-05

 Cycle   9  Pass 1  IDiag  1:
 RMSU=  4.36D-07    CP:  1.10D+00  1.02D+00  7.61D-01  8.26D-01  8.24D-01
                    CP:  9.28D-01  8.19D-01  8.40D-01
 E= -1292.21604523070     Delta-E=       -0.000000005520 Rises=F Damp=F
 DIIS: error= 9.46D-07 at cycle   9 NSaved=   9.
 NSaved= 9 IEnMin= 9 EnMin= -1292.21604523070     IErMin= 9 ErrMin= 9.46D-07
 ErrMax= 9.46D-07 EMaxC= 1.00D-01 BMatC= 1.29D-09 BMatP= 7.45D-09
 IDIUse=1 WtCom= 1.00D+00 WtEn= 0.00D+00
 Coeff-Com: -0.166D-04-0.276D-03-0.313D-03-0.128D-02 0.336D-02 0.254D-01
 Coeff-Com:  0.618D-01 0.339D+00 0.572D+00
 Coeff:     -0.166D-04-0.276D-03-0.313D-03-0.128D-02 0.336D-02 0.254D-01
 Coeff:      0.618D-01 0.339D+00 0.572D+00
 Gap=     0.062 Goal=   None    Shift=    0.000
 RMSDP=1.79D-07 MaxDP=6.89D-06 DE=-5.52D-09 OVMax= 7.81D-06

 Cycle  10  Pass 1  IDiag  1:
 RMSU=  1.28D-07    CP:  1.10D+00  1.02D+00  7.61D-01  8.26D-01  8.24D-01
                    CP:  9.32D-01  8.31D-01  8.88D-01  9.54D-01
 E= -1292.21604523166     Delta-E=       -0.000000000955 Rises=F Damp=F
 DIIS: error= 3.18D-07 at cycle  10 NSaved=  10.
 NSaved=10 IEnMin=10 EnMin= -1292.21604523166     IErMin=10 ErrMin= 3.18D-07
 ErrMax= 3.18D-07 EMaxC= 1.00D-01 BMatC= 1.61D-10 BMatP= 1.29D-09
 IDIUse=1 WtCom= 1.00D+00 WtEn= 0.00D+00
 Coeff-Com:  0.203D-05-0.209D-03-0.214D-03-0.113D-02-0.928D-03 0.183D-02
 Coeff-Com:  0.148D-01 0.140D+00 0.335D+00 0.512D+00
 Coeff:      0.203D-05-0.209D-03-0.214D-03-0.113D-02-0.928D-03 0.183D-02
 Coeff:      0.148D-01 0.140D+00 0.335D+00 0.512D+00
 Gap=     0.062 Goal=   None    Shift=    0.000
 RMSDP=7.95D-08 MaxDP=4.13D-06 DE=-9.55D-10 OVMax= 2.95D-06

 Cycle  11  Pass 1  IDiag  1:
 RMSU=  4.80D-08    CP:  1.10D+00  1.02D+00  7.61D-01  8.27D-01  8.25D-01
                    CP:  9.32D-01  8.42D-01  9.14D-01  9.44D-01  8.86D-01
 E= -1292.21604523183     Delta-E=       -0.000000000180 Rises=F Damp=F
 DIIS: error= 7.50D-08 at cycle  11 NSaved=  11.
 NSaved=11 IEnMin=11 EnMin= -1292.21604523183     IErMin=11 ErrMin= 7.50D-08
 ErrMax= 7.50D-08 EMaxC= 1.00D-01 BMatC= 9.94D-12 BMatP= 1.61D-10
 IDIUse=1 WtCom= 1.00D+00 WtEn= 0.00D+00
 Coeff-Com:  0.250D-05-0.826D-04-0.781D-04-0.458D-03-0.730D-03-0.102D-02
 Coeff-Com:  0.191D-02 0.414D-01 0.118D+00 0.259D+00 0.582D+00
 Coeff:      0.250D-05-0.826D-04-0.781D-04-0.458D-03-0.730D-03-0.102D-02
 Coeff:      0.191D-02 0.414D-01 0.118D+00 0.259D+00 0.582D+00
 Gap=     0.062 Goal=   None    Shift=    0.000
 RMSDP=2.30D-08 MaxDP=1.17D-06 DE=-1.80D-10 OVMax= 9.60D-07

 Cycle  12  Pass 1  IDiag  1:
 RMSU=  1.66D-08    CP:  1.10D+00  1.02D+00  7.61D-01  8.27D-01  8.25D-01
                    CP:  9.32D-01  8.44D-01  9.19D-01  9.61D-01  9.34D-01
                    CP:  9.68D-01
 E= -1292.21604523168     Delta-E=        0.000000000157 Rises=F Damp=F
 DIIS: error= 3.89D-08 at cycle  12 NSaved=  12.
 NSaved=12 IEnMin=11 EnMin= -1292.21604523183     IErMin=12 ErrMin= 3.89D-08
 ErrMax= 3.89D-08 EMaxC= 1.00D-01 BMatC= 3.06D-12 BMatP= 9.94D-12
 IDIUse=1 WtCom= 1.00D+00 WtEn= 0.00D+00
 Coeff-Com:  0.178D-05-0.206D-04-0.168D-04-0.123D-03-0.384D-03-0.121D-02
 Coeff-Com: -0.185D-02 0.272D-02 0.200D-01 0.818D-01 0.394D+00 0.505D+00
 Coeff:      0.178D-05-0.206D-04-0.168D-04-0.123D-03-0.384D-03-0.121D-02
 Coeff:     -0.185D-02 0.272D-02 0.200D-01 0.818D-01 0.394D+00 0.505D+00
 Gap=     0.062 Goal=   None    Shift=    0.000
 RMSDP=9.57D-09 MaxDP=6.02D-07 DE= 1.57D-10 OVMax= 4.20D-07

 SCF Done:  E(RB+HF-LYP) =  -1292.21604523     A.U. after   12 cycles
             Convg  =    0.9571D-08             -V/T =  2.0042
             S**2   =   0.0000
 KE= 1.286856736242D+03 PE=-4.842120691667D+03 EE= 1.386096972316D+03
 Leave Link  502 at Mon Jul 28 08:44:37 2008, MaxMem=  536870912 cpu:    1744.1
 (Enter /usr/local/Chem-Apps/g03_d01/g03/l601.exe)
 Copying SCF densities to generalized density rwf, ISCF=0 IROHF=0.

 **********************************************************************

            Population analysis using the SCF density.

 **********************************************************************

 Orbital symmetries:
       Occupied  (A) (A) (A) (A) (A) (A) (A) (A) (A) (A) (A) (A)
                 (A) (A) (A) (A) (A) (A) (A) (A) (A) (A) (A) (A)
                 (A) (A) (A) (A) (A) (A) (A) (A) (A) (A) (A) (A)
                 (A) (A) (A) (A) (A) (A) (A) (A) (A) (A) (A) (A)
                 (A) (A) (A) (A) (A) (A) (A)
       Virtual   (A) (A) (A) (A) (A) (A) (A) (A) (A) (A) (A) (A)
                 (A) (A) (A) (A) (A) (A) (A) (A) (A) (A) (A) (A)
                 (A) (A) (A) (A) (A) (A) (A) (A) (A) (A) (A) (A)
                 (A) (A) (A) (A) (A) (A) (A) (A) (A) (A) (A) (A)
                 (A) (A) (A) (A) (A) (A) (A) (A) (A) (A) (A) (A)
                 (A) (A) (A) (A) (A) (A) (A) (A) (A) (A) (A) (A)
                 (A) (A) (A) (A) (A) (A) (A) (A) (A) (A) (A) (A)
                 (A) (A) (A) (A) (A) (A) (A) (A) (A) (A) (A) (A)
                 (A) (A) (A) (A) (A) (A) (A) (A) (A) (A) (A) (A)
                 (A) (A) (A) (A) (A) (A) (A) (A) (A) (A) (A) (A)
                 (A) (A) (A) (A) (A) (A) (A) (A) (A) (A) (A) (A)
                 (A) (A) (A) (A) (A) (A) (A) (A) (A) (A) (A) (A)
                 (A) (A) (A) (A) (A) (A) (A) (A) (A) (A) (A) (A)
                 (A) (A) (A) (A) (A) (A) (A) (A) (A) (A) (A) (A)
                 (A) (A) (A) (A) (A) (A) (A) (A) (A) (A) (A) (A)
                 (A) (A) (A) (A) (A) (A) (A) (A) (A) (A) (A) (A)
                 (A) (A) (A) (A) (A) (A) (A) (A) (A) (A) (A) (A)
                 (A) (A) (A) (A) (A) (A) (A) (A) (A) (A) (A) (A)
                 (A) (A) (A) (A) (A) (A) (A) (A) (A) (A) (A) (A)
                 (A) (A) (A) (A) (A) (A) (A) (A) (A) (A) (A) (A)
                 (A) (A) (A) (A) (A) (A) (A) (A) (A) (A) (A) (A)
                 (A) (A) (A) (A) (A) (A) (A) (A) (A) (A) (A) (A)
                 (A) (A) (A) (A) (A) (A) (A) (A) (A) (A) (A) (A)
                 (A) (A) (A) (A) (A) (A) (A) (A) (A) (A) (A) (A)
                 (A) (A) (A) (A) (A) (A) (A) (A) (A) (A) (A) (A)
                 (A) (A) (A) (A) (A) (A) (A) (A) (A) (A) (A) (A)
                 (A) (A)
 The electronic state is 1-A.
 Alpha  occ. eigenvalues --  -88.53050 -76.91842 -18.88714 -18.87950 -18.85399
 Alpha  occ. eigenvalues --  -18.81484 -18.81356 -14.06819  -9.99993  -9.99405
 Alpha  occ. eigenvalues --   -9.99132  -7.59176  -6.36637  -5.55605  -5.54953
 Alpha  occ. eigenvalues --   -5.54899  -4.52983  -4.52881  -4.52830  -0.74542
 Alpha  occ. eigenvalues --   -0.73807  -0.72115  -0.70360  -0.64288  -0.64155
 Alpha  occ. eigenvalues --   -0.57764  -0.45415  -0.38677  -0.36127  -0.28675
 Alpha  occ. eigenvalues --   -0.27680  -0.26376  -0.25618  -0.23249  -0.21841
 Alpha  occ. eigenvalues --   -0.21046  -0.18294  -0.16117  -0.14564  -0.13723
 Alpha  occ. eigenvalues --   -0.12938  -0.11953  -0.10449  -0.09103  -0.08067
 Alpha  occ. eigenvalues --   -0.05784  -0.05090  -0.03244  -0.02446  -0.00875
 Alpha  occ. eigenvalues --   -0.00253   0.00934   0.01286   0.06739   0.07381
 Alpha virt. eigenvalues --    0.13544   0.16358   0.17657   0.17918   0.18790
 Alpha virt. eigenvalues --    0.19102   0.20417   0.21383   0.21893   0.22522
 Alpha virt. eigenvalues --    0.23301   0.23897   0.24400   0.24603   0.25358
 Alpha virt. eigenvalues --    0.26011   0.26181   0.26415   0.27444   0.28472
 Alpha virt. eigenvalues --    0.29191   0.29529   0.30567   0.30664   0.31139
 Alpha virt. eigenvalues --    0.31505   0.31909   0.32609   0.32892   0.34181
 Alpha virt. eigenvalues --    0.34776   0.35220   0.35788   0.36000   0.36532
 Alpha virt. eigenvalues --    0.37115   0.37908   0.38709   0.38920   0.39253
 Alpha virt. eigenvalues --    0.39469   0.39862   0.40745   0.41155   0.41667
 Alpha virt. eigenvalues --    0.42207   0.42332   0.42852   0.43393   0.43784
 Alpha virt. eigenvalues --    0.44099   0.44687   0.45148   0.46005   0.46211
 Alpha virt. eigenvalues --    0.46487   0.46698   0.47251   0.48312   0.48860
 Alpha virt. eigenvalues --    0.49112   0.49249   0.50509   0.50857   0.51590
 Alpha virt. eigenvalues --    0.51955   0.52446   0.53437   0.53713   0.54421
 Alpha virt. eigenvalues --    0.54599   0.54997   0.55432   0.56082   0.56676
 Alpha virt. eigenvalues --    0.56962   0.57971   0.58281   0.58480   0.58780
 Alpha virt. eigenvalues --    0.59871   0.61235   0.61272   0.62098   0.63071
 Alpha virt. eigenvalues --    0.63598   0.64591   0.65209   0.65404   0.65601
 Alpha virt. eigenvalues --    0.66815   0.67245   0.67542   0.68527   0.68823
 Alpha virt. eigenvalues --    0.69324   0.70090   0.70160   0.71335   0.72181
 Alpha virt. eigenvalues --    0.72585   0.73808   0.74223   0.74872   0.75440
 Alpha virt. eigenvalues --    0.75567   0.76064   0.76386   0.77037   0.77373
 Alpha virt. eigenvalues --    0.77976   0.78979   0.79472   0.80407   0.80929
 Alpha virt. eigenvalues --    0.81332   0.82141   0.82490   0.83794   0.84130
 Alpha virt. eigenvalues --    0.85001   0.87050   0.87320   0.88320   0.89203
 Alpha virt. eigenvalues --    0.90096   0.90420   0.91029   0.91739   0.92760
 Alpha virt. eigenvalues --    0.94220   0.94979   0.96110   0.97325   0.99115
 Alpha virt. eigenvalues --    0.99519   1.00217   1.01982   1.02335   1.03170
 Alpha virt. eigenvalues --    1.04269   1.05847   1.06561   1.07312   1.07650
 Alpha virt. eigenvalues --    1.09892   1.11265   1.12675   1.13204   1.13914
 Alpha virt. eigenvalues --    1.14871   1.15599   1.17599   1.17642   1.18041
 Alpha virt. eigenvalues --    1.18379   1.19456   1.20175   1.20822   1.22029
 Alpha virt. eigenvalues --    1.22574   1.23236   1.24198   1.24940   1.25549
 Alpha virt. eigenvalues --    1.26950   1.27614   1.27745   1.29216   1.29659
 Alpha virt. eigenvalues --    1.30886   1.31629   1.32500   1.33486   1.34003
 Alpha virt. eigenvalues --    1.34419   1.36114   1.38699   1.39258   1.39870
 Alpha virt. eigenvalues --    1.41588   1.42390   1.44426   1.45041   1.46283
 Alpha virt. eigenvalues --    1.47636   1.49412   1.49924   1.50447   1.52408
 Alpha virt. eigenvalues --    1.53912   1.54534   1.55667   1.56733   1.57824
 Alpha virt. eigenvalues --    1.58898   1.59953   1.60211   1.61425   1.61906
 Alpha virt. eigenvalues --    1.64296   1.65936   1.67121   1.68722   1.70083
 Alpha virt. eigenvalues --    1.70952   1.73276   1.74877   1.76247   1.77376
 Alpha virt. eigenvalues --    1.78416   1.79484   1.80249   1.82137   1.83214
 Alpha virt. eigenvalues --    1.83952   1.86866   1.88193   1.90175   1.90368
 Alpha virt. eigenvalues --    1.93125   1.96875   1.98188   1.99125   2.00890
 Alpha virt. eigenvalues --    2.02623   2.03729   2.04560   2.05115   2.06027
 Alpha virt. eigenvalues --    2.06906   2.07697   2.08654   2.10821   2.12265
 Alpha virt. eigenvalues --    2.13689   2.14457   2.15669   2.18354   2.18967
 Alpha virt. eigenvalues --    2.20560   2.21523   2.21938   2.23725   2.25473
 Alpha virt. eigenvalues --    2.26859   2.29640   2.30067   2.34032   2.35037
 Alpha virt. eigenvalues --    2.40879   2.44999   2.46368   2.46668   2.47594
 Alpha virt. eigenvalues --    2.49220   2.54168   2.54769   2.56146   2.57840
 Alpha virt. eigenvalues --    2.61091   2.62128   2.63217   2.64532   2.67426
 Alpha virt. eigenvalues --    2.69327   2.73170   2.76858   2.77844   2.79230
 Alpha virt. eigenvalues --    2.83004   2.83434   2.85477   2.87115   2.87946
 Alpha virt. eigenvalues --    2.92621   2.96777   2.97178   2.98040   3.00643
 Alpha virt. eigenvalues --    3.02888   3.09828   3.11920   3.15890   3.18065
 Alpha virt. eigenvalues --    3.25195   3.29096   3.44780   3.56757   3.57659
 Alpha virt. eigenvalues --    3.60553   3.61323   3.61595   3.62057   3.65197
 Alpha virt. eigenvalues --    3.65901   3.67550   3.69355   3.72899   3.74879
 Alpha virt. eigenvalues --    3.77164   3.77524   3.80098   3.81445   3.91820
 Alpha virt. eigenvalues --    3.93030   3.97622   4.01615   4.02538   4.12128
 Alpha virt. eigenvalues --    4.13120   4.27079   4.30843   4.39809
          Condensed to atoms (all electrons):
              1          2          3          4          5          6
     1  C    6.146595  -0.114925  -0.078961  -0.059624  -0.152767  -0.172741
     2  H   -0.114925   2.064447  -0.370675  -0.012626   0.036274  -0.015970
     3  H   -0.078961  -0.370675   2.442679   0.223324  -0.092434   0.055956
     4  N   -0.059624  -0.012626   0.223324   7.344482   0.275430  -0.259425
     5  H   -0.152767   0.036274  -0.092434   0.275430   1.133246  -0.086536
     6  P   -0.172741  -0.015970   0.055956  -0.259425  -0.086536  13.981521
     7  O    0.036911   0.005583  -0.002301  -0.150574   0.003581   0.081660
     8  O    0.064669   0.022754  -0.012066   0.129459   0.013476  -0.410512
     9  S    0.063027   0.018603  -0.003958  -0.059557  -0.008261   0.096155
    10  C   -0.049130  -0.209140  -0.422343   0.054871   0.073034  -0.145853
    11  H   -0.122527  -0.094026   0.073150  -0.137941   0.004930   0.003905
    12  C   -0.553286   0.191830  -0.120127   0.036187  -0.003899   0.013646
    13  H    0.146964   0.001704   0.045173   0.015293  -0.003049   0.004991
    14  H   -0.284531   0.022997  -0.161071  -0.033262   0.013544  -0.001637
    15  O   -0.004545   0.001101  -0.000565  -0.002722   0.000287   0.013904
    16  H   -0.002806   0.000850  -0.001260   0.011508  -0.000384   0.001650
    17  H   -0.008570   0.000158   0.002167  -0.003809  -0.000065   0.026758
    18  O   -0.001219  -0.000339   0.000317  -0.005918   0.001652   0.013274
    19  H   -0.003142  -0.000057  -0.000982   0.000484  -0.002261  -0.010082
    20  H    0.000517  -0.000221  -0.000027   0.001737  -0.001548  -0.005811
    21  O   -0.016970   0.000213   0.008209   0.006045  -0.001072   0.011564
    22  H    0.016980   0.001308  -0.010315  -0.009961   0.000290  -0.000858
    23  H    0.001124  -0.003193   0.003210  -0.000841  -0.000547  -0.000732
              7          8          9         10         11         12
     1  C    0.036911   0.064669   0.063027  -0.049130  -0.122527  -0.553286
     2  H    0.005583   0.022754   0.018603  -0.209140  -0.094026   0.191830
     3  H   -0.002301  -0.012066  -0.003958  -0.422343   0.073150  -0.120127
     4  N   -0.150574   0.129459  -0.059557   0.054871  -0.137941   0.036187
     5  H    0.003581   0.013476  -0.008261   0.073034   0.004930  -0.003899
     6  P    0.081660  -0.410512   0.096155  -0.145853   0.003905   0.013646
     7  O    9.289622  -0.139624  -0.055417  -0.007681  -0.001299  -0.001136
     8  O   -0.139624   9.433405   0.009658  -0.015060   0.001701   0.002585
     9  S   -0.055417   0.009658  16.983776  -0.015959   0.017229  -0.003384
    10  C   -0.007681  -0.015060  -0.015959   6.604545  -0.583136  -0.721835
    11  H   -0.001299   0.001701   0.017229  -0.583136   2.917745  -0.171201
    12  C   -0.001136   0.002585  -0.003384  -0.721835  -0.171201   6.698592
    13  H    0.000229   0.000319  -0.001358   0.301133  -0.273869  -0.433007
    14  H   -0.001086  -0.002242   0.000600  -0.246772   0.157135   0.351391
    15  O   -0.063887  -0.062409  -0.001813   0.000127   0.000032   0.000243
    16  H    0.057882   0.011012  -0.000845   0.001464   0.000161  -0.000029
    17  H    0.004576   0.058882   0.001380  -0.000641  -0.000482   0.000906
    18  O   -0.052830  -0.002583  -0.006932  -0.000416   0.000454  -0.000082
    19  H    0.101454   0.001685   0.001226  -0.000491   0.000383  -0.000002
    20  H   -0.003403   0.001062   0.011672  -0.000190   0.000187   0.000071
    21  O   -0.002750  -0.037851  -0.001983  -0.011590  -0.000840  -0.001692
    22  H    0.005912   0.108904  -0.003924  -0.004765  -0.001974  -0.000450
    23  H    0.000441  -0.012052   0.012410   0.001567   0.000404   0.000377
             13         14         15         16         17         18
     1  C    0.146964  -0.284531  -0.004545  -0.002806  -0.008570  -0.001219
     2  H    0.001704   0.022997   0.001101   0.000850   0.000158  -0.000339
     3  H    0.045173  -0.161071  -0.000565  -0.001260   0.002167   0.000317
     4  N    0.015293  -0.033262  -0.002722   0.011508  -0.003809  -0.005918
     5  H   -0.003049   0.013544   0.000287  -0.000384  -0.000065   0.001652
     6  P    0.004991  -0.001637   0.013904   0.001650   0.026758   0.013274
     7  O    0.000229  -0.001086  -0.063887   0.057882   0.004576  -0.052830
     8  O    0.000319  -0.002242  -0.062409   0.011012   0.058882  -0.002583
     9  S   -0.001358   0.000600  -0.001813  -0.000845   0.001380  -0.006932
    10  C    0.301133  -0.246772   0.000127   0.001464  -0.000641  -0.000416
    11  H   -0.273869   0.157135   0.000032   0.000161  -0.000482   0.000454
    12  C   -0.433007   0.351391   0.000243  -0.000029   0.000906  -0.000082
    13  H    2.625858  -0.810346   0.000012   0.000005   0.000027  -0.000013
    14  H   -0.810346   2.609463   0.000076   0.000144  -0.000170  -0.000004
    15  O    0.000012   0.000076   7.969231   0.253201   0.241929  -0.000037
    16  H    0.000005   0.000144   0.253201   0.624219  -0.105212   0.002633
    17  H    0.000027  -0.000170   0.241929  -0.105212   0.625429   0.000389
    18  O   -0.000013  -0.000004  -0.000037   0.002633   0.000389   7.851719
    19  H   -0.000103   0.000187   0.000805  -0.002509   0.001535   0.187381
    20  H   -0.000004   0.000003  -0.000198  -0.000208  -0.000491   0.329847
    21  O   -0.000002  -0.000419  -0.000337  -0.000206   0.004340  -0.000019
    22  H    0.000471  -0.001287   0.000367   0.001422  -0.007020  -0.000188
    23  H   -0.000010   0.000198  -0.000183  -0.000143  -0.000332   0.000026
             19         20         21         22         23
     1  C   -0.003142   0.000517  -0.016970   0.016980   0.001124
     2  H   -0.000057  -0.000221   0.000213   0.001308  -0.003193
     3  H   -0.000982  -0.000027   0.008209  -0.010315   0.003210
     4  N    0.000484   0.001737   0.006045  -0.009961  -0.000841
     5  H   -0.002261  -0.001548  -0.001072   0.000290  -0.000547
     6  P   -0.010082  -0.005811   0.011564  -0.000858  -0.000732
     7  O    0.101454  -0.003403  -0.002750   0.005912   0.000441
     8  O    0.001685   0.001062  -0.037851   0.108904  -0.012052
     9  S    0.001226   0.011672  -0.001983  -0.003924   0.012410
    10  C   -0.000491  -0.000190  -0.011590  -0.004765   0.001567
    11  H    0.000383   0.000187  -0.000840  -0.001974   0.000404
    12  C   -0.000002   0.000071  -0.001692  -0.000450   0.000377
    13  H   -0.000103  -0.000004  -0.000002   0.000471  -0.000010
    14  H    0.000187   0.000003  -0.000419  -0.001287   0.000198
    15  O    0.000805  -0.000198  -0.000337   0.000367  -0.000183
    16  H   -0.002509  -0.000208  -0.000206   0.001422  -0.000143
    17  H    0.001535  -0.000491   0.004340  -0.007020  -0.000332
    18  O    0.187381   0.329847  -0.000019  -0.000188   0.000026
    19  H    0.571272  -0.110887   0.000025  -0.000720   0.000039
    20  H   -0.110887   0.727030   0.000015   0.000197  -0.000041
    21  O    0.000025   0.000015   7.874468   0.149071   0.330366
    22  H   -0.000720   0.000197   0.149071   0.576931  -0.098188
    23  H    0.000039  -0.000041   0.330366  -0.098188   0.725426
 Mulliken atomic charges:
              1
     1  C    1.148957
     2  H   -0.546649
     3  H   -0.577099
     4  N   -0.362560
     5  H   -0.202921
     6  P    1.805172
     7  O   -1.105861
     8  O   -1.165171
     9  S   -1.052347
    10  C    1.398260
    11  H   -0.790124
    12  C    0.714299
    13  H   -0.620420
    14  H   -0.612909
    15  O   -0.344619
    16  H    0.147452
    17  H    0.158315
    18  O   -0.317113
    19  H    0.264759
    20  H    0.050692
    21  O   -0.308585
    22  H    0.277798
    23  H    0.040674
 Sum of Mulliken charges=  -2.00000
 Atomic charges with hydrogens summed into heavy atoms:
              1
     1  C    0.025209
     2  H    0.000000
     3  H    0.000000
     4  N   -0.565481
     5  H    0.000000
     6  P    1.805172
     7  O   -1.105861
     8  O   -1.165171
     9  S   -1.052347
    10  C    0.608136
    11  H    0.000000
    12  C   -0.519029
    13  H    0.000000
    14  H    0.000000
    15  O   -0.038852
    16  H    0.000000
    17  H    0.000000
    18  O   -0.001663
    19  H    0.000000
    20  H    0.000000
    21  O    0.009887
    22  H    0.000000
    23  H    0.000000
 Sum of Mulliken charges=  -2.00000
 Electronic spatial extent (au):  <R**2>=  3539.3897
 Charge=    -2.0000 electrons
 Dipole moment (field-independent basis, Debye):
    X=     8.5251    Y=    -3.3522    Z=    -0.2562  Tot=     9.1641
 Quadrupole moment (field-independent basis, Debye-Ang):
   XX=  -139.7435   YY=  -132.0982   ZZ=  -123.5857
   XY=   -11.3958   XZ=    -8.0452   YZ=     6.1321
 Traceless Quadrupole moment (field-independent basis, Debye-Ang):
   XX=    -7.9344   YY=    -0.2891   ZZ=     8.2234
   XY=   -11.3958   XZ=    -8.0452   YZ=     6.1321
 Octapole moment (field-independent basis, Debye-Ang**2):
  XXX=    19.7006  YYY=   -36.8946  ZZZ=   -20.8592  XYY=     6.6347
  XXY=    41.3703  XXZ=    33.8871  XZZ=    41.6492  YZZ=   -14.0358
  YYZ=    21.8991  XYZ=    -5.0904
 Hexadecapole moment (field-independent basis, Debye-Ang**3):
 XXXX= -3228.5677 YYYY= -1839.0088 ZZZZ= -1252.6551 XXXY=   -82.5937
 XXXZ=   -75.5245 YYYX=  -160.8719 YYYZ=    14.3072 ZZZX=   -17.4994
 ZZZY=    84.2359 XXYY=  -918.5623 XXZZ=  -668.9060 YYZZ=  -416.6134
 XXYZ=   -40.3009 YYXZ=   -31.5009 ZZXY=    95.1417
 N-N= 8.769509378776D+02 E-N=-4.842120694848D+03  KE= 1.286856736242D+03
 No NMR shielding tensors so no spin-rotation constants.
 Leave Link  601 at Mon Jul 28 08:44:39 2008, MaxMem=  536870912 cpu:      14.9
 (Enter /usr/local/Chem-Apps/g03_d01/g03/l701.exe)
 Compute integral first derivatives.
 ... and contract with generalized density number  0.
 Leave Link  701 at Mon Jul 28 08:44:40 2008, MaxMem=  536870912 cpu:       6.9
 (Enter /usr/local/Chem-Apps/g03_d01/g03/l702.exe)
 L702 exits ... SP integral derivatives will be done elsewhere.
 Leave Link  702 at Mon Jul 28 08:44:40 2008, MaxMem=  536870912 cpu:       0.0
 (Enter /usr/local/Chem-Apps/g03_d01/g03/l703.exe)
 Compute integral first derivatives, UseDBF=F.
 Integral derivatives from FoFDir, PRISM(SPDF).
 Symmetry not used in FoFDir.
 MinBra= 0 MaxBra= 2 Meth= 1.
 IRaf=       0 NMat=   1 IRICut=       1 DoRegI=T DoRafI=F ISym2E= 0 JSym2E=0.
 Leave Link  703 at Mon Jul 28 08:45:07 2008, MaxMem=  536870912 cpu:     398.0
 (Enter /usr/local/Chem-Apps/g03_d01/g03/l716.exe)
 Dipole        = 3.35403468D+00-1.31885727D+00-1.00810558D-01
 ***** Axes restored to original set *****
 -------------------------------------------------------------------
 Center     Atomic                   Forces (Hartrees/Bohr)
 Number     Number              X              Y              Z
 -------------------------------------------------------------------
    1          6          -0.006798047    0.005164350   -0.001326306
    2          1          -0.002739073   -0.001084250   -0.001299533
    3          1           0.000047055   -0.000722232    0.003179659
    4          7           0.020630066   -0.013332753   -0.007459346
    5          1          -0.002164101    0.002272217    0.002346175
    6         15          -0.011639714    0.006000607    0.020492848
    7          8          -0.011550390   -0.013311019   -0.012904649
    8          8           0.011187218    0.019172877   -0.009376220
    9         16           0.001976307   -0.001228677    0.007616240
   10          6          -0.008248264    0.003974340    0.005779213
   11          1          -0.001635874   -0.002918473    0.003118895
   12          6           0.006297807   -0.001561945   -0.004422853
   13          1           0.004661668   -0.005433288    0.000117372
   14          1           0.000607489    0.003711807   -0.004806640
   15          8          -0.001059136    0.001448089   -0.005271434
   16          1          -0.001432017   -0.002031274    0.001172236
   17          1           0.001305729    0.001807486    0.001968219
   18          8          -0.009878488   -0.008304132    0.001974376
   19          1           0.006810564    0.005511768    0.003127117
   20          1           0.004737098    0.003203249   -0.004368805
   21          8           0.006913256    0.010446660    0.004777676
   22          1          -0.006099581   -0.008615721    0.001069454
   23          1          -0.001929571   -0.004169687   -0.005503695
 -------------------------------------------------------------------
 Cartesian Forces:  Max     0.020630066 RMS     0.007092448
 Leave Link  716 at Mon Jul 28 08:45:07 2008, MaxMem=  536870912 cpu:       0.0
 (Enter /usr/local/Chem-Apps/g03_d01/g03/l103.exe)

 GradGradGradGradGradGradGradGradGradGradGradGradGradGradGradGradGradGrad
 Berny optimization.
 Internal  Forces:  Max     0.019186307 RMS     0.004493660
 Search for a local minimum.
 Step number   1 out of a maximum of 113
 All quantities printed in internal units (Hartrees-Bohrs-Radians)
 Swaping is turned off.
 Second derivative matrix not updated -- first step.
     Eigenvalues ---    0.00230   0.00230   0.00574   0.00770   0.00775
     Eigenvalues ---    0.00823   0.01140   0.01150   0.01644   0.01713
     Eigenvalues ---    0.02434   0.02816   0.03021   0.03021   0.03261
     Eigenvalues ---    0.03931   0.05011   0.05147   0.06615   0.06626
     Eigenvalues ---    0.07377   0.07530   0.08706   0.09784   0.10431
     Eigenvalues ---    0.11252   0.12643   0.13161   0.14772   0.15979
     Eigenvalues ---    0.16000   0.16000   0.16000   0.16000   0.16000
     Eigenvalues ---    0.17427   0.18193   0.20084   0.21936   0.22000
     Eigenvalues ---    0.22066   0.23143   0.25000   0.25000   0.28484
     Eigenvalues ---    0.32120   0.32390   0.32448   0.33155   0.34918
     Eigenvalues ---    0.35466   0.35629   0.36265   0.44223   0.49207
     Eigenvalues ---    0.49348   0.49348   0.49815   0.53860   0.53963
     Eigenvalues ---    0.59611   0.60654   0.613141000.000001000.00000
     Eigenvalues --- 1000.000001000.000001000.000001000.000001000.00000
     Eigenvalues --- 1000.000001000.000001000.000001000.000001000.00000
     Eigenvalues --- 1000.000001000.000001000.000001000.000001000.00000
     Eigenvalues --- 1000.000001000.000001000.000001000.000001000.00000
     Eigenvalues --- 1000.000001000.000001000.000001000.000001000.00000
     Eigenvalues --- 1000.000001000.000001000.000001000.000001000.00000
     Eigenvalues --- 1000.000001000.000001000.000001000.000001000.00000
     Eigenvalues --- 1000.000001000.000001000.00000
 Quadratic step=3.965D-01 exceeds max=3.000D-01 adjusted using Lamda=-2.109D-03.
 Angle between NR and scaled steps=  15.50 degrees.
 Angle between quadratic step and forces=  57.59 degrees.
 Linear search not attempted -- option 19 set.
 Iteration  1 RMS(Cart)=  0.07534523 RMS(Int)=  0.00822136
 Iteration  2 RMS(Cart)=  0.00388322 RMS(Int)=  0.00018552
 Iteration  3 RMS(Cart)=  0.00001072 RMS(Int)=  0.00016690
 Iteration  4 RMS(Cart)=  0.00000001 RMS(Int)=  0.00016690
 Variable       Old X    -DE/DX   Delta X   Delta X   Delta X     New X
                                 (Linear)    (Quad)   (Total)
    R1        2.08780  -0.00188   0.00000  -0.00564  -0.00564   2.08216
    R2        2.10135  -0.00284   0.00000  -0.00872  -0.00872   2.09263
    R3        2.76969  -0.00684   0.00000  -0.01875  -0.01875   2.75095
    R4        2.83331   0.00278   0.00000   0.00850   0.00850   2.84181
    R5        1.92888  -0.00284   0.00000  -0.00639  -0.00639   1.92249
    R6        3.27626   0.01508   0.00000   0.04664   0.04664   3.32290
    R7        2.92342   0.01800   0.00000   0.02960   0.02966   2.95308
    R8        2.92594   0.01919   0.00000   0.03167   0.03174   2.95768
    R9        3.89392   0.00718   0.00000   0.02503   0.02503   3.91895
   R10        3.62979   0.00209   0.00000   0.03578   0.03574   3.66554
   R11        3.19698  -0.00135   0.00000  -0.01743  -0.01743   3.17955
   R12        3.62810   0.00195   0.00000   0.03315   0.03314   3.66123
   R13        3.21651  -0.00233   0.00000  -0.03065  -0.03065   3.18586
   R14        2.05809   0.00442   0.00000   0.01257   0.01257   2.07066
   R15        2.51250   0.01501   0.00000   0.02510   0.02510   2.53759
   R16        2.04665   0.00714   0.00000   0.01993   0.01993   2.06658
   R17        2.04925   0.00610   0.00000   0.01710   0.01710   2.06635
   R18        1.84895   0.00537   0.00000   0.00909   0.00902   1.85797
   R19        1.84905   0.00548   0.00000   0.00933   0.00927   1.85833
   R20        1.87375   0.00663   0.00000   0.01341   0.01341   1.88716
   R21        1.82766  -0.00478   0.00000  -0.00881  -0.00881   1.81884
   R22        1.87229   0.00740   0.00000   0.01493   0.01493   1.88722
   R23        1.82860  -0.00534   0.00000  -0.00987  -0.00987   1.81872
    A1        1.86181  -0.00044   0.00000  -0.00243  -0.00230   1.85951
    A2        1.88978  -0.00242   0.00000  -0.03219  -0.03223   1.85755
    A3        1.89684   0.00193   0.00000   0.00451   0.00413   1.90097
    A4        1.96687   0.00239   0.00000   0.02344   0.02344   1.99032
    A5        1.91224   0.00085   0.00000   0.01549   0.01535   1.92760
    A6        1.93361  -0.00225   0.00000  -0.00968  -0.00990   1.92370
    A7        1.92274   0.00527   0.00000   0.03372   0.03366   1.95640
    A8        2.10981  -0.00739   0.00000  -0.03079  -0.03072   2.07909
    A9        1.89905   0.00015   0.00000  -0.00622  -0.00599   1.89306
   A10        1.79747  -0.00146   0.00000  -0.02196  -0.02199   1.77548
   A11        1.90414  -0.00257   0.00000  -0.02851  -0.02853   1.87561
   A12        1.86814  -0.00122   0.00000  -0.01205  -0.01172   1.85643
   A13        1.95972   0.00002   0.00000   0.01082   0.01016   1.96988
   A14        1.98515   0.00249   0.00000   0.02498   0.02444   2.00959
   A15        1.93996   0.00208   0.00000   0.01909   0.01838   1.95833
   A16        1.86483  -0.00228   0.00000  -0.00722  -0.00717   1.85767
   A17        2.36391  -0.00233   0.00000  -0.01971  -0.01973   2.34418
   A18        1.98289   0.00425   0.00000   0.02142   0.02126   2.00415
   A19        1.86316  -0.00250   0.00000  -0.00658  -0.00647   1.85669
   A20        2.39450  -0.00130   0.00000  -0.01230  -0.01241   2.38209
   A21        2.02450   0.00383   0.00000   0.01951   0.01942   2.04392
   A22        2.01580  -0.00208   0.00000  -0.01080  -0.01087   2.00493
   A23        2.18203   0.00250   0.00000   0.01120   0.01113   2.19317
   A24        2.08531  -0.00042   0.00000  -0.00057  -0.00065   2.08467
   A25        2.12379   0.00061   0.00000   0.00379   0.00376   2.12755
   A26        2.11730  -0.00037   0.00000  -0.00226  -0.00229   2.11501
   A27        2.04209  -0.00024   0.00000  -0.00148  -0.00150   2.04059
   A28        1.67782   0.00324   0.00000   0.00767   0.00747   1.68529
   A29        2.59589   0.00095   0.00000   0.00001  -0.00010   2.59579
   A30        2.59822   0.00090   0.00000  -0.00018  -0.00026   2.59796
   A31        1.82596  -0.00981   0.00000  -0.06050  -0.06050   1.76546
   A32        3.12438  -0.00278   0.00000  -0.01103  -0.01103   3.11334
   A33        1.82523  -0.00873   0.00000  -0.05385  -0.05385   1.77138
   A34        3.10740  -0.00290   0.00000  -0.01148  -0.01148   3.09592
    D1        3.05413  -0.00078   0.00000  -0.00945  -0.00979   3.04434
    D2        0.81483   0.00040   0.00000  -0.00665  -0.00676   0.80807
    D3        0.99899  -0.00009   0.00000   0.00046   0.00045   0.99944
    D4       -1.24031   0.00108   0.00000   0.00325   0.00348  -1.23683
    D5       -1.15055  -0.00125   0.00000  -0.02955  -0.02955  -1.18009
    D6        2.89334  -0.00007   0.00000  -0.02675  -0.02652   2.86682
    D7        1.06060  -0.00097   0.00000   0.01423   0.01417   1.07477
    D8       -2.09016  -0.00140   0.00000  -0.00803  -0.00804  -2.09821
    D9        3.08877   0.00006   0.00000   0.02240   0.02239   3.11116
   D10       -0.06200  -0.00037   0.00000   0.00014   0.00018  -0.06182
   D11       -1.01364   0.00214   0.00000   0.05660   0.05660  -0.95705
   D12        2.11878   0.00171   0.00000   0.03434   0.03439   2.15316
   D13        2.66186   0.00045   0.00000   0.05496   0.05528   2.71713
   D14        0.57705   0.00238   0.00000   0.06719   0.06710   0.64415
   D15       -1.52369   0.00203   0.00000   0.06727   0.06733  -1.45636
   D16        0.41206  -0.00073   0.00000   0.03973   0.03985   0.45191
   D17       -1.67275   0.00120   0.00000   0.05196   0.05168  -1.62107
   D18        2.50970   0.00085   0.00000   0.05203   0.05191   2.56160
   D19       -1.94055   0.00103   0.00000   0.00429   0.00433  -1.93622
   D20        1.64287   0.00100   0.00000   0.01399   0.01387   1.65674
   D21        0.10533  -0.00283   0.00000  -0.03695  -0.03710   0.06823
   D22       -2.59444  -0.00286   0.00000  -0.02725  -0.02756  -2.62200
   D23        2.32745   0.00219   0.00000   0.02009   0.02044   2.34789
   D24       -0.37232   0.00216   0.00000   0.02979   0.02998  -0.34234
   D25        1.86998  -0.00056   0.00000  -0.00319  -0.00317   1.86681
   D26       -1.21833  -0.00117   0.00000  -0.02025  -0.02015  -1.23847
   D27       -0.11115   0.00274   0.00000   0.03452   0.03469  -0.07646
   D28        3.08372   0.00213   0.00000   0.01746   0.01772   3.10144
   D29       -2.35717  -0.00240   0.00000  -0.02428  -0.02449  -2.38166
   D30        0.83770  -0.00302   0.00000  -0.04134  -0.04146   0.79624
   D31       -0.05871   0.00145   0.00000   0.04264   0.04265  -0.01606
   D32        2.74931   0.00001   0.00000   0.02536   0.02515   2.77445
   D33        0.38459  -0.00098   0.00000  -0.08854  -0.08859   0.29599
   D34       -2.29401   0.00027   0.00000  -0.07254  -0.07248  -2.36650
   D35        0.09115  -0.00094   0.00000  -0.02969  -0.02969   0.06146
   D36       -3.09072  -0.00061   0.00000  -0.01772  -0.01750  -3.10822
   D37       -0.93314   0.00051   0.00000   0.06839   0.06844  -0.86470
   D38        2.26522   0.00001   0.00000   0.05087   0.05081   2.31603
   D39        3.13499   0.00047   0.00000   0.01925   0.01929  -3.12891
   D40       -0.00252   0.00005   0.00000   0.00622   0.00625   0.00374
   D41       -0.01611   0.00002   0.00000  -0.00387  -0.00390  -0.02001
   D42        3.12957  -0.00040   0.00000  -0.01690  -0.01693   3.11264
   D43        0.00750   0.00035   0.00000  -0.02530  -0.02546  -0.01796
   D44       -0.02683  -0.00075   0.00000   0.01757   0.01770  -0.00913
   D45        0.00440  -0.00072   0.00000  -0.05304  -0.05304  -0.04864
   D46        0.10271   0.00054   0.00000   0.03965   0.03965   0.14236
         Item               Value     Threshold  Converged?
 Maximum Force            0.019186     0.000450     NO 
 RMS     Force            0.004494     0.000300     NO 
 Maximum Displacement     0.282391     0.001800     NO 
 RMS     Displacement     0.075560     0.001200     NO 
 Predicted change in Energy=-3.771403D-03
 GradGradGradGradGradGradGradGradGradGradGradGradGradGradGradGradGradGrad

 Leave Link  103 at Mon Jul 28 08:45:07 2008, MaxMem=  536870912 cpu:       1.9
 (Enter /usr/local/Chem-Apps/g03_d01/g03/l202.exe)
                          Input orientation:                          
 ---------------------------------------------------------------------
 Center     Atomic     Atomic              Coordinates (Angstroms)
 Number     Number      Type              X           Y           Z
 ---------------------------------------------------------------------
    1          6             0        2.133215   -0.393963   -0.044173
    2          1             0        2.151779    0.147449    0.915286
    3          1             0        2.404100    0.341481   -0.826490
    4          7             0        0.790908   -0.939980   -0.182931
    5          1             0        0.650003   -1.383889   -1.087403
    6         15             0       -0.592054    0.093117    0.151890
    7          8             0       -1.713763   -0.594592   -0.691237
    8          8             0       -0.240300    1.529554   -0.360527
    9         16             0       -0.876461    0.041400    2.205463
   10          6             0        3.144317   -1.506095    0.003927
   11          1             0        2.961958   -2.261714    0.776225
   12          6             0        4.191808   -1.648115   -0.824206
   13          1             0        4.884573   -2.490150   -0.740597
   14          1             0        4.384858   -0.925600   -1.621935
   15          8             0       -1.964704    1.476928   -2.597834
   16          1             0       -2.128859    0.619139   -2.146251
   17          1             0       -1.287152    1.808237   -1.966802
   18          8             0       -3.617743   -2.394997   -0.124815
   19          1             0       -2.910725   -1.727674   -0.353052
   20          1             0       -3.594043   -2.369747    0.837052
   21          8             0        1.393380    3.508329    0.426162
   22          1             0        0.795782    2.774668    0.106833
   23          1             0        1.259924    3.463661    1.378243
 ---------------------------------------------------------------------
                    Distance matrix (angstroms):
                    1          2          3          4          5
     1  C    0.000000
     2  H    1.101832   0.000000
     3  H    1.107374   1.770621   0.000000
     4  N    1.455739   2.059260   2.158402   0.000000
     5  H    2.065962   2.934466   2.474234   1.017339   0.000000
     6  P    2.775388   2.848569   3.161621   1.758402   2.293490
     7  O    3.906173   4.251348   4.225083   2.578963   2.523356
     8  O    3.071412   3.043018   2.936237   2.682075   3.131954
     9  S    3.782665   3.293333   4.477150   3.073704   3.899295
    10  C    1.503821   2.133053   2.156630   2.427743   2.725351
    11  H    2.201900   2.545544   3.107496   2.716693   3.096583
    12  C    2.533604   3.226700   2.674770   3.532535   3.561386
    13  H    3.528311   4.143313   3.765403   4.412721   4.390407
    14  H    2.800334   3.546205   2.482263   3.871358   3.800645
    15  O    5.178258   5.572697   4.849056   4.389373   4.159611
    16  H    4.859052   5.283878   4.729332   3.848444   3.585436
    17  H    4.499455   4.784443   4.132435   3.879849   3.836089
    18  O    6.089676   6.390088   6.651560   4.642915   4.490275
    19  H    5.226426   5.545604   5.723016   3.788337   3.651882
    20  H    6.122235   6.273506   6.789393   4.723600   4.763126
    21  O    3.999557   3.479932   3.552410   4.530058   5.174677
    22  H    3.442638   3.065062   3.062381   3.725936   4.329093
    23  H    4.203233   3.465111   3.989736   4.695667   5.472673
                    6          7          8          9         10
     6  P    0.000000
     7  O    1.562703   0.000000
     8  O    1.565137   2.606234   0.000000
     9  S    2.073819   3.081628   3.033745   0.000000
    10  C    4.066920   4.991496   4.561099   4.838198   0.000000
    11  H    4.308831   5.176400   5.091206   4.698991   1.095746
    12  C    5.183626   6.000280   5.473221   6.141718   1.342837
    13  H    6.120722   6.865393   6.524323   6.948203   2.133347
    14  H    5.380882   6.178102   5.386188   6.577655   2.125875
    15  O    3.370472   2.826530   2.825221   5.129978   6.462947
    16  H    2.814236   1.939719   2.753964   4.565052   6.078345
    17  H    2.813122   2.753661   1.937442   4.549525   5.874222
    18  O    3.927094   2.680939   5.183124   4.345210   6.821450
    19  H    2.991067   1.682546   4.211978   3.716699   6.069602
    20  H    3.942979   3.003714   5.280751   3.882194   6.844376
    21  O    3.959905   5.266582   2.683905   4.509733   5.328088
    22  H    3.019741   4.276289   1.685883   3.830326   4.883763
    23  H    4.036623   5.440127   3.002460   4.118289   5.489823
                   11         12         13         14         15
    11  H    0.000000
    12  C    2.109600   0.000000
    13  H    2.459549   1.093590   0.000000
    14  H    3.092090   1.093466   1.863944   0.000000
    15  O    7.045120   7.128413   8.130167   6.858678   0.000000
    16  H    6.538853   6.843908   7.799472   6.714882   0.983197
    17  H    6.491813   6.578061   7.620360   6.305910   0.983384
    18  O    6.642447   7.876298   8.525117   8.272976   4.882639
    19  H    6.004072   7.118588   7.842081   7.448418   4.025354
    20  H    6.557174   7.993748   8.624987   8.473196   5.408335
    21  O    5.989690   5.998627   7.037863   5.727423   4.954581
    22  H    5.523183   5.653391   6.719722   5.437104   4.076718
    23  H    6.003271   6.291023   7.285288   6.167000   5.491313
                   16         17         18         19         20
    16  H    0.000000
    17  H    1.467865   0.000000
    18  O    3.922753   5.147013   0.000000
    19  H    3.055226   4.212226   0.998642   0.000000
    20  H    4.469933   5.535241   0.962490   1.515100   0.000000
    21  O    5.231721   3.975153   7.763001   6.822626   7.719780
    22  H    4.275070   3.093956   6.801345   5.849853   6.802117
    23  H    5.656608   4.518556   7.770115   6.880527   7.608057
                   21         22         23
    21  O    0.000000
    22  H    0.998676   0.000000
    23  H    0.962426   1.518757   0.000000
 Stoichiometry    C3H12NO5PS(2-)
 Framework group  C1[X(C3H12NO5PS)]
 Deg. of freedom    63
 Full point group                 C1
 Largest Abelian subgroup         C1      NOp   1
 Largest concise Abelian subgroup C1      NOp   1
                         Standard orientation:                         
 ---------------------------------------------------------------------
 Center     Atomic     Atomic              Coordinates (Angstroms)
 Number     Number      Type              X           Y           Z
 ---------------------------------------------------------------------
    1          6             0        2.128902   -0.420981   -0.075894
    2          1             0        2.161874    0.077789    0.906029
    3          1             0        2.402546    0.344598   -0.827750
    4          7             0        0.778879   -0.944289   -0.226770
    5          1             0        0.625226   -1.346587   -1.148467
    6         15             0       -0.588476    0.089723    0.164558
    7          8             0       -1.725344   -0.547042   -0.698054
    8          8             0       -0.223140    1.542829   -0.287840
    9         16             0       -0.856965   -0.048136    2.216297
   10          6             0        3.126542   -1.546196   -0.084930
   11          1             0        2.941084   -2.332553    0.655278
   12          6             0        4.165500   -1.664495   -0.927416
   13          1             0        4.848461   -2.517623   -0.886489
   14          1             0        4.361035   -0.910228   -1.694563
   15          8             0       -1.966012    1.608557   -2.510441
   16          1             0       -2.137112    0.733910   -2.095237
   17          1             0       -1.279362    1.903868   -1.871421
   18          8             0       -3.646800   -2.347488   -0.194232
   19          1             0       -2.933452   -1.679368   -0.399260
   20          1             0       -3.615049   -2.364518    0.767583
   21          8             0        1.441138    3.465663    0.570201
   22          1             0        0.831972    2.753852    0.224375
   23          1             0        1.314807    3.381097    1.520545
 ---------------------------------------------------------------------
 Rotational constants (GHZ):      0.6393437      0.4304260      0.3718072
[...]
       Virtual   (A) (A) (A) (A) (A) (A) (A) (A) (A) (A) (A) (A)
                 (A) (A) (A) (A) (A) (A) (A) (A) (A) (A) (A) (A)
                 (A) (A) (A) (A) (A) (A) (A) (A) (A) (A) (A) (A)
                 (A) (A) (A) (A) (A) (A) (A) (A) (A) (A) (A) (A)
                 (A) (A) (A) (A) (A) (A) (A) (A) (A) (A) (A) (A)
                 (A) (A) (A) (A) (A) (A) (A) (A) (A) (A) (A) (A)
                 (A) (A) (A) (A) (A) (A) (A) (A) (A) (A) (A) (A)
                 (A) (A) (A) (A) (A) (A) (A) (A) (A) (A) (A) (A)
                 (A) (A) (A) (A) (A) (A) (A) (A) (A) (A) (A) (A)
                 (A) (A) (A) (A) (A) (A) (A) (A) (A) (A) (A) (A)
                 (A) (A) (A) (A) (A) (A) (A) (A) (A) (A) (A) (A)
                 (A) (A) (A) (A) (A) (A) (A) (A) (A) (A) (A) (A)
                 (A) (A) (A) (A) (A) (A) (A) (A) (A) (A) (A) (A)
                 (A) (A) (A) (A) (A) (A) (A) (A) (A) (A) (A) (A)
                 (A) (A) (A) (A) (A) (A) (A) (A) (A) (A) (A) (A)
                 (A) (A) (A) (A) (A) (A) (A) (A) (A) (A) (A) (A)
                 (A) (A) (A) (A) (A) (A) (A) (A) (A) (A) (A) (A)
                 (A) (A) (A) (A) (A) (A) (A) (A) (A) (A) (A) (A)
                 (A) (A) (A) (A) (A) (A) (A) (A) (A) (A) (A) (A)
                 (A) (A) (A) (A) (A) (A) (A) (A) (A) (A) (A) (A)
                 (A) (A) (A) (A) (A) (A) (A) (A) (A) (A) (A) (A)
                 (A) (A) (A) (A) (A) (A) (A) (A) (A) (A) (A) (A)
                 (A) (A) (A) (A) (A) (A) (A) (A) (A) (A) (A) (A)
                 (A) (A) (A) (A) (A) (A) (A) (A) (A) (A) (A) (A)
                 (A) (A) (A) (A) (A) (A) (A) (A) (A) (A) (A) (A)
                 (A) (A) (A) (A) (A) (A) (A) (A) (A) (A) (A) (A)
                 (A) (A) (A) (A) (A) (A) (A) (A) (A) (A) (A) (A)
                 (A) (A) (A) (A) (A) (A) (A) (A) (A) (A) (A) (A)
                 (A) (A)
 The electronic state is 1-A.
 Alpha  occ. eigenvalues --  -88.79457 -77.11088 -19.11572 -19.11546 -19.11365
 Alpha  occ. eigenvalues --  -19.07520 -19.07223 -14.29327 -10.18896 -10.18208
 Alpha  occ. eigenvalues --  -10.17365  -7.85461  -6.58335  -5.81882  -5.81241
 Alpha  occ. eigenvalues --   -5.81221  -4.74574  -4.74485  -4.74420  -0.97983
 Alpha  occ. eigenvalues --   -0.97652  -0.97465  -0.94574  -0.89137  -0.85953
 Alpha  occ. eigenvalues --   -0.76098  -0.65240  -0.63865  -0.54616  -0.49977
 Alpha  occ. eigenvalues --   -0.48239  -0.47956  -0.47793  -0.47065  -0.42489
 Alpha  occ. eigenvalues --   -0.41411  -0.40807  -0.39225  -0.38135  -0.37330
 Alpha  occ. eigenvalues --   -0.36237  -0.35470  -0.33903  -0.33335  -0.29115
 Alpha  occ. eigenvalues --   -0.28916  -0.28763  -0.27464  -0.26885  -0.25872
 Alpha  occ. eigenvalues --   -0.25746  -0.24569  -0.22126  -0.19714  -0.19268
 Alpha virt. eigenvalues --   -0.00208   0.00567   0.01528   0.01783   0.02142
 Alpha virt. eigenvalues --    0.03731   0.04088   0.04651   0.05399   0.05778
 Alpha virt. eigenvalues --    0.07325   0.07489   0.08419   0.08844   0.08997
 Alpha virt. eigenvalues --    0.09768   0.10485   0.11254   0.11707   0.12406
 Alpha virt. eigenvalues --    0.12719   0.13170   0.13840   0.14073   0.14513
 Alpha virt. eigenvalues --    0.14970   0.15508   0.16220   0.17028   0.17174
 Alpha virt. eigenvalues --    0.17448   0.17698   0.18685   0.18864   0.19179
 Alpha virt. eigenvalues --    0.19751   0.20264   0.20623   0.21110   0.21322
 Alpha virt. eigenvalues --    0.22296   0.22768   0.23031   0.23858   0.24395
 Alpha virt. eigenvalues --    0.25622   0.25811   0.26511   0.27270   0.27472
 Alpha virt. eigenvalues --    0.28190   0.28851   0.30350   0.30572   0.31177
 Alpha virt. eigenvalues --    0.32114   0.33132   0.33797   0.34808   0.35375
 Alpha virt. eigenvalues --    0.36166   0.36302   0.37831   0.38354   0.39149
 Alpha virt. eigenvalues --    0.39342   0.39791   0.41422   0.42495   0.42801
 Alpha virt. eigenvalues --    0.44138   0.44646   0.45600   0.45930   0.46834
 Alpha virt. eigenvalues --    0.47039   0.48694   0.50278   0.51255   0.51603
 Alpha virt. eigenvalues --    0.52187   0.54072   0.55667   0.56198   0.56962
 Alpha virt. eigenvalues --    0.57834   0.58620   0.60024   0.60439   0.61828
 Alpha virt. eigenvalues --    0.63172   0.63652   0.65578   0.66137   0.68136
 Alpha virt. eigenvalues --    0.68928   0.70349   0.71005   0.72713   0.73381
 Alpha virt. eigenvalues --    0.74367   0.74908   0.75654   0.76661   0.77194
 Alpha virt. eigenvalues --    0.77499   0.77913   0.78684   0.79514   0.79942
 Alpha virt. eigenvalues --    0.80193   0.81071   0.81365   0.83326   0.84029
 Alpha virt. eigenvalues --    0.85298   0.85916   0.87922   0.88226   0.89532
 Alpha virt. eigenvalues --    0.89892   0.90321   0.90890   0.91548   0.93019
 Alpha virt. eigenvalues --    0.93937   0.94212   0.95635   0.95892   0.96476
 Alpha virt. eigenvalues --    0.98347   0.99718   1.00621   1.00921   1.02304
 Alpha virt. eigenvalues --    1.04456   1.05383   1.06335   1.07599   1.08794
 Alpha virt. eigenvalues --    1.09300   1.10720   1.11083   1.11941   1.12592
 Alpha virt. eigenvalues --    1.13240   1.14585   1.15101   1.15833   1.16640
 Alpha virt. eigenvalues --    1.16999   1.17802   1.17949   1.19523   1.21004
 Alpha virt. eigenvalues --    1.21140   1.21553   1.22467   1.23717   1.24717
 Alpha virt. eigenvalues --    1.25742   1.26374   1.26747   1.29186   1.30688
 Alpha virt. eigenvalues --    1.32352   1.33244   1.33573   1.35845   1.37356
 Alpha virt. eigenvalues --    1.37805   1.39504   1.42363   1.43206   1.44469
 Alpha virt. eigenvalues --    1.45855   1.49351   1.53853   1.54990   1.56316
 Alpha virt. eigenvalues --    1.57995   1.58291   1.60120   1.60687   1.62427
 Alpha virt. eigenvalues --    1.63418   1.63638   1.65908   1.68788   1.69725
 Alpha virt. eigenvalues --    1.72312   1.72803   1.73872   1.76026   1.77166
 Alpha virt. eigenvalues --    1.77710   1.79155   1.79437   1.80166   1.80930
 Alpha virt. eigenvalues --    1.82585   1.83329   1.84231   1.85365   1.86263
 Alpha virt. eigenvalues --    1.87253   1.87888   1.89043   1.89480   1.92393
 Alpha virt. eigenvalues --    1.94021   1.94869   1.95558   1.97101   1.98467
 Alpha virt. eigenvalues --    1.99038   1.99591   2.02317   2.03387   2.04625
 Alpha virt. eigenvalues --    2.08856   2.11134   2.12907   2.14094   2.16560
 Alpha virt. eigenvalues --    2.19724   2.23883   2.26902   2.27686   2.28450
 Alpha virt. eigenvalues --    2.31774   2.34352   2.35359   2.35866   2.36099
 Alpha virt. eigenvalues --    2.38366   2.39743   2.41014   2.41802   2.43793
 Alpha virt. eigenvalues --    2.46016   2.46749   2.50158   2.53038   2.54559
 Alpha virt. eigenvalues --    2.56340   2.57087   2.57775   2.60222   2.63166
 Alpha virt. eigenvalues --    2.64282   2.66853   2.71056   2.72421   2.74394
 Alpha virt. eigenvalues --    2.77732   2.84413   2.88374   2.94176   3.13859
 Alpha virt. eigenvalues --    3.16046   3.20141   3.21080   3.21784   3.24799
 Alpha virt. eigenvalues --    3.27144   3.28362   3.29103   3.30748   3.33822
 Alpha virt. eigenvalues --    3.36499   3.38420   3.43479   3.49484   3.49940
 Alpha virt. eigenvalues --    3.52851   3.53973   3.54956   3.57207   3.57638
 Alpha virt. eigenvalues --    3.66621   3.68845   3.70538   3.80149   3.81533
 Alpha virt. eigenvalues --    3.82513   3.85414   3.87687   3.97240   4.93788
 Alpha virt. eigenvalues --    4.98354   5.05908   5.16138   5.23217   5.36508
 Alpha virt. eigenvalues --    5.39615   5.42827   5.50765   5.51046   5.51902
 Alpha virt. eigenvalues --    5.53264   5.55583   5.58513   5.61099   5.62673
 Alpha virt. eigenvalues --    5.71879   6.88147   6.89280   6.89858   6.95181
 Alpha virt. eigenvalues --    6.95786   6.97428   7.02765   8.82214   8.99292
 Alpha virt. eigenvalues --    9.12500  10.17624  20.77453  20.79738  20.90206
 Alpha virt. eigenvalues --   20.99271  21.02300  35.13525  35.27867  35.40573
 Alpha virt. eigenvalues --   36.67558  36.80138  36.93352  36.98590  37.02262
 Alpha virt. eigenvalues --   37.02898  37.04351  37.05386  37.05932  37.08442
 Alpha virt. eigenvalues --   37.09721  37.20479  59.13454
          Condensed to atoms (all electrons):
              1          2          3          4          5          6
     1  C    5.476461   0.408207   0.402419   0.160547  -0.020026  -0.227600
     2  H    0.408207   0.506701  -0.020092  -0.029808   0.003031  -0.005222
     3  H    0.402419  -0.020092   0.502928  -0.013877  -0.005855  -0.016753
     4  N    0.160547  -0.029808  -0.013877   6.992276   0.356710   0.244053
     5  H   -0.020026   0.003031  -0.005855   0.356710   0.449948  -0.019035
     6  P   -0.227600  -0.005222  -0.016753   0.244053  -0.019035  13.250669
     7  O    0.042214   0.003558  -0.000021  -0.134396   0.004172   0.056836
     8  O    0.000189  -0.003590   0.007171   0.014323  -0.003746   0.075553
     9  S    0.000065   0.006101   0.002052   0.013793   0.001790   0.335632
    10  C    0.190236  -0.061091  -0.048599  -0.115190   0.000970   0.060500
    11  H   -0.021739  -0.000338   0.002417  -0.002320  -0.000295  -0.003240
    12  C   -0.116072   0.013971  -0.005395   0.054473  -0.001714  -0.001521
    13  H   -0.002237  -0.000061   0.000030  -0.000742   0.000004   0.000319
    14  H    0.000056   0.000024   0.003970  -0.001727   0.000009  -0.000622
    15  O    0.002328  -0.000003   0.000108   0.000344  -0.000332  -0.012837
    16  H   -0.000729   0.000000   0.000001  -0.002624   0.000000   0.009124
    17  H   -0.000926   0.000000   0.000005  -0.001961  -0.000008   0.008765
    18  O   -0.000400   0.000046   0.000004   0.001673   0.000012  -0.012237
    19  H   -0.000575   0.000000   0.000000  -0.002483  -0.000002   0.010148
    20  H   -0.000600   0.000000   0.000000  -0.002410   0.000001   0.014065
    21  O   -0.003575  -0.001019   0.000972  -0.003306  -0.000003   0.001771
    22  H   -0.000139  -0.000002  -0.000079   0.000483   0.000005   0.008493
    23  H    0.000206  -0.000064  -0.000006   0.000048  -0.000001   0.009532
              7          8          9         10         11         12
     1  C    0.042214   0.000189   0.000065   0.190236  -0.021739  -0.116072
     2  H    0.003558  -0.003590   0.006101  -0.061091  -0.000338   0.013971
     3  H   -0.000021   0.007171   0.002052  -0.048599   0.002417  -0.005395
     4  N   -0.134396   0.014323   0.013793  -0.115190  -0.002320   0.054473
     5  H    0.004172  -0.003746   0.001790   0.000970  -0.000295  -0.001714
     6  P    0.056836   0.075553   0.335632   0.060500  -0.003240  -0.001521
     7  O    9.319385  -0.104254  -0.008264  -0.009914   0.000052   0.003185
     8  O   -0.104254   9.192425  -0.024261  -0.023990  -0.000002   0.002571
     9  S   -0.008264  -0.024261  16.528655   0.003141   0.000724  -0.002932
    10  C   -0.009914  -0.023990   0.003141   5.185184   0.405246   0.135998
    11  H    0.000052  -0.000002   0.000724   0.405246   0.500574  -0.021278
    12  C    0.003185   0.002571  -0.002932   0.135998  -0.021278   5.735946
    13  H   -0.000002  -0.000006   0.000014   0.015040  -0.004120   0.384537
    14  H    0.000002  -0.000054   0.000036   0.011394   0.002181   0.369633
    15  O   -0.047852  -0.047421   0.000658  -0.000914   0.000000   0.000022
    16  H    0.026068   0.001069  -0.000183  -0.000080   0.000000   0.000019
    17  H    0.002153   0.026070  -0.000071  -0.000062   0.000000   0.000041
    18  O   -0.061630  -0.001152  -0.029604   0.000451   0.000003  -0.000066
    19  H    0.036606  -0.000061  -0.005070   0.000137   0.000000  -0.000019
    20  H    0.004818  -0.000473   0.018323   0.000067   0.000000  -0.000019
    21  O   -0.000252  -0.063838  -0.029600  -0.004593   0.000004  -0.000455
    22  H   -0.000092   0.035688  -0.005746   0.000261   0.000000  -0.000004
    23  H   -0.000366   0.003933   0.020502   0.000509   0.000000   0.000030
             13         14         15         16         17         18
     1  C   -0.002237   0.000056   0.002328  -0.000729  -0.000926  -0.000400
     2  H   -0.000061   0.000024  -0.000003   0.000000   0.000000   0.000046
     3  H    0.000030   0.003970   0.000108   0.000001   0.000005   0.000004
     4  N   -0.000742  -0.001727   0.000344  -0.002624  -0.001961   0.001673
     5  H    0.000004   0.000009  -0.000332   0.000000  -0.000008   0.000012
     6  P    0.000319  -0.000622  -0.012837   0.009124   0.008765  -0.012237
     7  O   -0.000002   0.000002  -0.047852   0.026068   0.002153  -0.061630
     8  O   -0.000006  -0.000054  -0.047421   0.001069   0.026070  -0.001152
     9  S    0.000014   0.000036   0.000658  -0.000183  -0.000071  -0.029604
    10  C    0.015040   0.011394  -0.000914  -0.000080  -0.000062   0.000451
    11  H   -0.004120   0.002181   0.000000   0.000000   0.000000   0.000003
    12  C    0.384537   0.369633   0.000022   0.000019   0.000041  -0.000066
    13  H    0.498362  -0.025265   0.000000   0.000000   0.000000   0.000000
    14  H   -0.025265   0.511333   0.000001   0.000000   0.000000   0.000000
    15  O    0.000000   0.000001   8.169682   0.288025   0.286629  -0.000385
    16  H    0.000000   0.000000   0.288025   0.386111  -0.014875   0.000255
    17  H    0.000000   0.000000   0.286629  -0.014875   0.382903  -0.000003
    18  O    0.000000   0.000000  -0.000385   0.000255  -0.000003   8.177417
    19  H    0.000000   0.000000   0.000182   0.000050   0.000001   0.282978
    20  H    0.000000   0.000000  -0.000002   0.000001   0.000000   0.287380
    21  O    0.000000  -0.000002  -0.000362  -0.000004   0.000258  -0.000077
    22  H    0.000000   0.000000   0.000174   0.000002   0.000075  -0.000001
    23  H    0.000000   0.000000  -0.000003   0.000000   0.000002   0.000006
             19         20         21         22         23
     1  C   -0.000575  -0.000600  -0.003575  -0.000139   0.000206
     2  H    0.000000   0.000000  -0.001019  -0.000002  -0.000064
     3  H    0.000000   0.000000   0.000972  -0.000079  -0.000006
     4  N   -0.002483  -0.002410  -0.003306   0.000483   0.000048
     5  H   -0.000002   0.000001  -0.000003   0.000005  -0.000001
     6  P    0.010148   0.014065   0.001771   0.008493   0.009532
     7  O    0.036606   0.004818  -0.000252  -0.000092  -0.000366
     8  O   -0.000061  -0.000473  -0.063838   0.035688   0.003933
     9  S   -0.005070   0.018323  -0.029600  -0.005746   0.020502
    10  C    0.000137   0.000067  -0.004593   0.000261   0.000509
    11  H    0.000000   0.000000   0.000004   0.000000   0.000000
    12  C   -0.000019  -0.000019  -0.000455  -0.000004   0.000030
    13  H    0.000000   0.000000   0.000000   0.000000   0.000000
    14  H    0.000000   0.000000  -0.000002   0.000000   0.000000
    15  O    0.000182  -0.000002  -0.000362   0.000174  -0.000003
    16  H    0.000050   0.000001  -0.000004   0.000002   0.000000
    17  H    0.000001   0.000000   0.000258   0.000075   0.000002
    18  O    0.282978   0.287380  -0.000077  -0.000001   0.000006
    19  H    0.339153  -0.016226  -0.000001   0.000000   0.000000
    20  H   -0.016226   0.424858   0.000005   0.000000   0.000000
    21  O   -0.000001   0.000005   8.184976   0.282254   0.286776
    22  H    0.000000   0.000000   0.282254   0.340125  -0.016014
    23  H    0.000000   0.000000   0.286776  -0.016014   0.426735
 Mulliken atomic charges:
              1
     1  C   -0.288310
     2  H    0.179652
     3  H    0.188601
     4  N   -0.527878
     5  H    0.234366
     6  P    1.213607
     7  O   -1.132004
     8  O   -1.086144
     9  S   -0.825756
    10  C    0.255300
    11  H    0.142131
    12  C   -0.550949
    13  H    0.134127
    14  H    0.129033
    15  O   -0.638044
    16  H    0.307771
    17  H    0.311004
    18  O   -0.644668
    19  H    0.355183
    20  H    0.270214
    21  O   -0.649930
    22  H    0.354517
    23  H    0.268175
 Sum of Mulliken charges=  -2.00000
 Atomic charges with hydrogens summed into heavy atoms:
              1
     1  C    0.079944
     2  H    0.000000
     3  H    0.000000
     4  N   -0.293512
     5  H    0.000000
     6  P    1.213607
     7  O   -1.132004
     8  O   -1.086144
     9  S   -0.825756
    10  C    0.397431
    11  H    0.000000
    12  C   -0.287789
    13  H    0.000000
    14  H    0.000000
    15  O   -0.019268
    16  H    0.000000
    17  H    0.000000
    18  O   -0.019271
    19  H    0.000000
    20  H    0.000000
    21  O   -0.027237
    22  H    0.000000
    23  H    0.000000
 Sum of Mulliken charges=  -2.00000
 Electronic spatial extent (au):  <R**2>=  3359.0196
 Charge=    -2.0000 electrons
 Dipole moment (field-independent basis, Debye):
    X=   -11.8684    Y=    -1.9887    Z=     0.8996  Tot=    12.0674
 Quadrupole moment (field-independent basis, Debye-Ang):
   XX=  -121.8305   YY=  -137.9331   ZZ=  -123.4630
   XY=     9.0691   XZ=    -8.5102   YZ=    -0.0543
 Traceless Quadrupole moment (field-independent basis, Debye-Ang):
   XX=     5.9117   YY=   -10.1909   ZZ=     4.2792
   XY=     9.0691   XZ=    -8.5102   YZ=    -0.0543
 Octapole moment (field-independent basis, Debye-Ang**2):
  XXX=   -49.2656  YYY=   -21.7916  ZZZ=   -29.0139  XYY=   -56.0295
  XXY=    36.4744  XXZ=    -1.4230  XZZ=   -39.4920  YZZ=   -36.1708
  YYZ=    36.5104  XYZ=   -22.9108
 Hexadecapole moment (field-independent basis, Debye-Ang**3):
 XXXX= -2584.4223 YYYY= -1702.6392 ZZZZ= -1369.6622 XXXY=   116.4083
 XXXZ=   -36.5558 YYYX=   133.3749 YYYZ=   119.1968 ZZZX=   -96.0950
 ZZZY=   -83.4724 XXYY=  -747.2939 XXZZ=  -676.3383 YYZZ=  -465.6550
 XXYZ=   -37.1652 YYXZ=     7.1281 ZZXY=   -71.8593
 N-N= 8.884964758498D+02 E-N=-4.867145778468D+03  KE= 1.286953598306D+03
 Calculating spin-rotation constants.
 Leave Link  601 at Mon Jul 28 09:55:28 2008, MaxMem= 1073741824 cpu:     134.7
 (Enter /usr/local/Chem-Apps/g03_d01/g03/l9999.exe)
 1\1\ SGI ALTIX 4700 1.6GHZ/9MB-MAGELLAN\SP\RB3LYP\Gen\C3H12N1O5P1S1(2-
 )\IK1\28-Jul-2008\0\\#p nmr=giao b3lyp/Gen scf=tight integral=(grid=ul
 trafine) guess=read scrf=(pcm,solvent=water,read) geom=checkpoint\\Mol
 ecule 1, NMR and scalar couplings.\\-2,1\C,0,2.0923677834,-0.494746951
 8,-0.109242848\H,0,1.9994417208,-0.1407133204,0.9319443745\H,0,2.49224
 95499,0.3510027833,-0.7018311004\N,0,0.7578486576,-0.9253832777,-0.510
 8861284\H,0,0.7196369155,-1.1155691426,-1.5119912866\P,0,-0.5804601755
 ,0.2008350458,-0.1667987028\O,0,-1.7793207037,-0.4726342047,-0.9161539
 306\O,0,-0.1668643648,1.5984476177,-0.7562195841\S,0,-0.7226949491,0.2
 186128111,1.9129113974\C,0,3.0496983812,-1.6525189202,-0.1455349246\H,
 0,2.7131475438,-2.5373034062,0.4063654949\C,0,4.2235543348,-1.68941053
 45,-0.7957175577\H,0,4.8676192775,-2.5723869129,-0.7734837089\H,0,4.57
 67365676,-0.8325177878,-1.3759461784\O,0,-1.7263856872,1.3448881625,-3
 .1257763487\H,0,-2.0096036852,0.5843511333,-2.5749230069\H,0,-1.097352
 0205,1.7256563946,-2.4747516266\O,0,-3.2164482426,-2.0416323349,0.8326
 502991\H,0,-2.7857343672,-1.552664569,0.0840128663\H,0,-2.7131923526,-
 1.6456336287,1.5637656449\O,0,0.705087279,3.3186295887,1.197704068\H,0
 ,0.4361067762,2.8171164598,0.3837856994\H,0,0.3853604752,2.6810192227,
 1.8589434699\\Version=IA64L-G03RevD.01\State=1-A\HF=-1292.5660905\RMSD
 =9.014e-09\Thermal=0.\Dipole=4.3444667,-1.8568384,-0.4671681\PG=C01 [X
 (C3H12N1O5P1S1)]\\@


 TERENCE, THIS IS STUPID STUFF:
 YOU EAT YOUR VICTUALS FAST ENOUGH;
 THERE CAN'T BE MUCH AMISS, 'TIS CLEAR
 TO SEE THE RATE YOU DRINK YOUR BEER.
 BUT OH, GOOD LORD, THE VERSE YOU MAKE,
 IT GIVES A CHAP THE BELLY-ACHE.
 THE COW, THE OLD COW, SHE IS DEAD;
 IT SLEEPS WELL, THE HORNED HEAD:
 WE POOR LADS, 'TIS OUR TURN NOW
 TO HEAR SUCH TUNES AS KILLED THE COW.
 PRETTY FRIENDSHIP 'TIS TO RHYME
 YOUR FRIENDS TO DEATH BEFORE THEIR TIME.
 MOPING, MELANCHOLY MAD:
 COME PIPE A TUNE TO DANCE TO, LAD.

     -- A. E. HOUSMAN
 Job cpu time:  0 days  0 hours  8 minutes 42.8 seconds.
 File lengths (MBytes):  RWF=    245 Int=      0 D2E=      0 Chk=     42 Scr=      1
 Normal termination of Gaussian 03 at Mon Jul 28 09:55:29 2008.
