 Entering Gaussian System, Link 0=/usr/local/Chem-Apps/g03_d01/g03/g03
 Initial command:
 /usr/local/Chem-Apps/g03_d01/g03/l1.exe /scratch/LSF_66559/Gau-3026.inp -scrdir=/scratch/LSF_66559/
 Entering Link 1 = /usr/local/Chem-Apps/g03_d01/g03/l1.exe PID=      3027.
  
 Copyright (c) 1988,1990,1992,1993,1995,1998,2003,2004, Gaussian, Inc.
                  All Rights Reserved.
  
 This is the Gaussian(R) 03 program.  It is based on the
 the Gaussian(R) 98 system (copyright 1998, Gaussian, Inc.),
 the Gaussian(R) 94 system (copyright 1995, Gaussian, Inc.),
 the Gaussian 92(TM) system (copyright 1992, Gaussian, Inc.),
 the Gaussian 90(TM) system (copyright 1990, Gaussian, Inc.),
 the Gaussian 88(TM) system (copyright 1988, Gaussian, Inc.),
 the Gaussian 86(TM) system (copyright 1986, Carnegie Mellon
 University), and the Gaussian 82(TM) system (copyright 1983,
 Carnegie Mellon University). Gaussian is a federally registered
 trademark of Gaussian, Inc.
  
 This software contains proprietary and confidential information,
 including trade secrets, belonging to Gaussian, Inc.
  
 This software is provided under written license and may be
 used, copied, transmitted, or stored only in accord with that
 written license.
  
 The following legend is applicable only to US Government
 contracts under FAR:
  
                    RESTRICTED RIGHTS LEGEND
  
 Use, reproduction and disclosure by the US Government is
 subject to restrictions as set forth in subparagraphs (a)
 and (c) of the Commercial Computer Software - Restricted
 Rights clause in FAR 52.227-19.
  
 Gaussian, Inc.
 340 Quinnipiac St., Bldg. 40, Wallingford CT 06492
  
  
 ---------------------------------------------------------------
 Warning -- This program may not be used in any manner that
 competes with the business of Gaussian, Inc. or will provide
 assistance to any competitor of Gaussian, Inc.  The licensee
 of this program is prohibited from giving any competitor of
 Gaussian, Inc. access to this program.  By using this program,
 the user acknowledges that Gaussian, Inc. is engaged in the
 business of creating and licensing software in the field of
 computational chemistry and represents and warrants to the
 licensee that it is not a competitor of Gaussian, Inc. and that
 it will not use this program in any manner prohibited above.
 ---------------------------------------------------------------
  

 Cite this work as:
 Gaussian 03, Revision D.01,
 M. J. Frisch, G. W. Trucks, H. B. Schlegel, G. E. Scuseria, 
 M. A. Robb, J. R. Cheeseman, J. A. Montgomery, Jr., T. Vreven, 
 K. N. Kudin, J. C. Burant, J. M. Millam, S. S. Iyengar, J. Tomasi, 
 V. Barone, B. Mennucci, M. Cossi, G. Scalmani, N. Rega, 
 G. A. Petersson, H. Nakatsuji, M. Hada, M. Ehara, K. Toyota, 
 R. Fukuda, J. Hasegawa, M. Ishida, T. Nakajima, Y. Honda, O. Kitao, 
 H. Nakai, M. Klene, X. Li, J. E. Knox, H. P. Hratchian, J. B. Cross, 
 V. Bakken, C. Adamo, J. Jaramillo, R. Gomperts, R. E. Stratmann, 
 O. Yazyev, A. J. Austin, R. Cammi, C. Pomelli, J. W. Ochterski, 
 P. Y. Ayala, K. Morokuma, G. A. Voth, P. Salvador, J. J. Dannenberg, 
 V. G. Zakrzewski, S. Dapprich, A. D. Daniels, M. C. Strain, 
 O. Farkas, D. K. Malick, A. D. Rabuck, K. Raghavachari, 
 J. B. Foresman, J. V. Ortiz, Q. Cui, A. G. Baboul, S. Clifford, 
 J. Cioslowski, B. B. Stefanov, G. Liu, A. Liashenko, P. Piskorz, 
 I. Komaromi, R. L. Martin, D. J. Fox, T. Keith, M. A. Al-Laham, 
 C. Y. Peng, A. Nanayakkara, M. Challacombe, P. M. W. Gill, 
 B. Johnson, W. Chen, M. W. Wong, C. Gonzalez, and J. A. Pople, 
 Gaussian, Inc., Wallingford CT, 2004.
 
 ******************************************
 Gaussian 03:  IA64L-G03RevD.01 13-Oct-2005
                27-Jul-2008 
 ******************************************
 %Mem=4GB
 %NProcShared=16
 Will use up to   16 processors via shared memory.
 %Chk=molecule_4.chk
 Default route:  MaxDisk=64GB Cachesize=589840
 ----------------------------------------
 #p opt=gdiis b3lyp/aug-cc-pVDZ scf=tight
 ----------------------------------------
 1/4=589840,14=-1,18=20,19=11,26=3,38=1/1,3;
 2/4=589840,9=110,17=6,18=5,40=1/2;
 3/4=589840,5=16,7=10,11=2,16=1,25=1,30=1,74=-5/1,2,3;
 4/4=589840/1;
 5/4=589840,5=2,32=2,38=5/2;
 6/4=589840,7=2,8=2,9=2,10=2,28=1/1;
 7/4=589840/1,2,3,16;
 1/4=589840,14=-1,18=20,19=11/3(3);
 2/4=589840,9=110/2;
 6/4=589840,7=2,8=2,9=2,10=2,19=2,28=1/1;
 99/4=589840/99;
 2/4=589840,9=110/2;
 3/4=589840,5=16,7=10,11=2,16=1,25=1,30=1,74=-5/1,2,3;
 4/4=589840,5=5,16=3/1;
 5/4=589840,5=2,32=2,38=5/2;
 7/4=589840/1,2,3,16;
 1/4=589840,14=-1,18=20,19=11/3(-5);
 2/4=589840,9=110/2;
 6/4=589840,7=2,8=2,9=2,10=2,19=2,28=1/1;
 99/4=589840,9=1/99;
 Leave Link    1 at Sun Jul 27 19:49:42 2008, MaxMem=  536870912 cpu:       1.5
 (Enter /usr/local/Chem-Apps/g03_d01/g03/l101.exe)
 ---------------------
 Molecule 4, geometry.
 ---------------------
 Symbolic Z-matrix:
 Charge = -2 Multiplicity = 1
 C                     2.04356  -0.60197  -0.46123 
 H                     2.19903   0.42031  -0.05425 
 H                     2.1247   -0.51394  -1.56799 
 N                     0.7283   -1.06262  -0.01037 
 H                     0.45529  -1.84703  -0.56415 
 P                    -0.66137   0.13387   0.24428 
 O                    -1.75125  -0.44464  -0.73815 
 O                    -0.12665   1.49082  -0.35682 
 S                    -1.05802   0.07516   2.26472 
 O                    -1.57345   1.45847  -2.59578 
 H                    -1.8987    0.64433  -2.17144 
 H                    -0.93025   1.79421  -1.94614 
 O                    -3.85326  -2.07432  -0.35745 
 H                    -3.11524  -1.51557  -0.67291 
 H                    -3.84197  -1.99793   0.59071 
 O                     1.66767   3.27957   0.52348 
 H                     1.07812   2.67455   0.02949 
 H                     1.4921    3.11245   1.44311 
 C                     3.16862  -1.50816   0.07231 
 H                     2.91694  -2.53251  -0.10731 
 H                     3.28644  -1.34892   1.12381 
 C                     4.48635  -1.16923  -0.64903 
 H                     4.89336  -0.18208  -0.57995 
 C                     5.13223  -2.11696  -1.37098 
 H                     4.73012  -3.10586  -1.44372 
 H                     6.04744  -1.87552  -1.86997 
 
                    Isotopes and Nuclear Properties:
 (Nuclear quadrupole moments (NQMom) in fm**2, nuclear magnetic moments (NMagM)
  in nuclear magnetons)

  Atom         1           2           3           4           5           6           7           8           9          10
 IAtWgt=          12           1           1          14           1          31          16          16          32          16
 AtmWgt=  12.0000000   1.0078250   1.0078250  14.0030740   1.0078250  30.9737634  15.9949146  15.9949146  31.9720718  15.9949146
 NucSpn=           0           1           1           2           1           1           0           0           0           0
 AtZEff=   0.0000000   0.0000000   0.0000000   0.0000000   0.0000000   0.0000000   0.0000000   0.0000000   0.0000000   0.0000000
 NQMom=    0.0000000   0.0000000   0.0000000   2.0440000   0.0000000   0.0000000   0.0000000   0.0000000   0.0000000   0.0000000
 NMagM=    0.0000000   2.7928460   2.7928460   0.4037610   2.7928460   1.1316000   0.0000000   0.0000000   0.0000000   0.0000000

  Atom        11          12          13          14          15          16          17          18          19          20
 IAtWgt=           1           1          16           1           1          16           1           1          12           1
 AtmWgt=   1.0078250   1.0078250  15.9949146   1.0078250   1.0078250  15.9949146   1.0078250   1.0078250  12.0000000   1.0078250
 NucSpn=           1           1           0           1           1           0           1           1           0           1
 AtZEff=   0.0000000   0.0000000   0.0000000   0.0000000   0.0000000   0.0000000   0.0000000   0.0000000   0.0000000   0.0000000
 NQMom=    0.0000000   0.0000000   0.0000000   0.0000000   0.0000000   0.0000000   0.0000000   0.0000000   0.0000000   0.0000000
 NMagM=    2.7928460   2.7928460   0.0000000   2.7928460   2.7928460   0.0000000   2.7928460   2.7928460   0.0000000   2.7928460

  Atom        21          22          23          24          25          26
 IAtWgt=           1          12           1          12           1           1
 AtmWgt=   1.0078250  12.0000000   1.0078250  12.0000000   1.0078250   1.0078250
 NucSpn=           1           0           1           0           1           1
 AtZEff=   0.0000000   0.0000000   0.0000000   0.0000000   0.0000000   0.0000000
 NQMom=    0.0000000   0.0000000   0.0000000   0.0000000   0.0000000   0.0000000
 NMagM=    2.7928460   0.0000000   2.7928460   0.0000000   2.7928460   2.7928460
 Leave Link  101 at Sun Jul 27 19:49:43 2008, MaxMem=  536870912 cpu:       0.9
 (Enter /usr/local/Chem-Apps/g03_d01/g03/l103.exe)

 GradGradGradGradGradGradGradGradGradGradGradGradGradGradGradGradGradGrad
 Berny optimization.
 Initialization pass.
                           ----------------------------
                           !    Initial Parameters    !
                           ! (Angstroms and Degrees)  !
 --------------------------                            --------------------------
 ! Name  Definition              Value          Derivative Info.                !
 --------------------------------------------------------------------------------
 ! R1    R(1,2)                  1.1112         estimate D2E/DX2                !
 ! R2    R(1,3)                  1.1132         estimate D2E/DX2                !
 ! R3    R(1,4)                  1.4647         estimate D2E/DX2                !
 ! R4    R(1,19)                 1.54           estimate D2E/DX2                !
 ! R5    R(4,5)                  0.9982         estimate D2E/DX2                !
 ! R6    R(4,6)                  1.8514         estimate D2E/DX2                !
 ! R7    R(6,7)                  1.5772         estimate D2E/DX2                !
 ! R8    R(6,8)                  1.5775         estimate D2E/DX2                !
 ! R9    R(6,9)                  2.0598         estimate D2E/DX2                !
 ! R10   R(7,11)                 1.8061         estimate D2E/DX2                !
 ! R11   R(7,14)                 1.7354         estimate D2E/DX2                !
 ! R12   R(8,12)                 1.8066         estimate D2E/DX2                !
 ! R13   R(8,17)                 1.7326         estimate D2E/DX2                !
 ! R14   R(10,11)                0.974          estimate D2E/DX2                !
 ! R15   R(10,12)                0.9739         estimate D2E/DX2                !
 ! R16   R(13,14)                0.978          estimate D2E/DX2                !
 ! R17   R(13,15)                0.9513         estimate D2E/DX2                !
 ! R18   R(16,17)                0.9786         estimate D2E/DX2                !
 ! R19   R(16,18)                0.951          estimate D2E/DX2                !
 ! R20   R(19,20)                1.07           estimate D2E/DX2                !
 ! R21   R(19,21)                1.07           estimate D2E/DX2                !
 ! R22   R(19,22)                1.54           estimate D2E/DX2                !
 ! R23   R(22,23)                1.07           estimate D2E/DX2                !
 ! R24   R(22,24)                1.3552         estimate D2E/DX2                !
 ! R25   R(24,25)                1.07           estimate D2E/DX2                !
 ! R26   R(24,26)                1.07           estimate D2E/DX2                !
 ! A1    A(2,1,3)              106.3299         estimate D2E/DX2                !
 ! A2    A(2,1,4)              107.5903         estimate D2E/DX2                !
 ! A3    A(2,1,19)             108.1941         estimate D2E/DX2                !
 ! A4    A(3,1,4)              113.35           estimate D2E/DX2                !
 ! A5    A(3,1,19)             109.7389         estimate D2E/DX2                !
 ! A6    A(4,1,19)             111.3653         estimate D2E/DX2                !
 ! A7    A(1,4,5)              108.781          estimate D2E/DX2                !
 ! A8    A(1,4,6)              120.8714         estimate D2E/DX2                !
 ! A9    A(5,4,6)              112.2623         estimate D2E/DX2                !
 ! A10   A(4,6,7)              101.3009         estimate D2E/DX2                !
 ! A11   A(4,6,8)              104.4224         estimate D2E/DX2                !
 ! A12   A(4,6,9)              105.1314         estimate D2E/DX2                !
 ! A13   A(7,6,8)              108.2032         estimate D2E/DX2                !
 ! A14   A(7,6,9)              117.8686         estimate D2E/DX2                !
 ! A15   A(8,6,9)              117.6157         estimate D2E/DX2                !
 ! A16   A(6,7,11)             109.2431         estimate D2E/DX2                !
 ! A17   A(6,7,14)             138.2492         estimate D2E/DX2                !
 ! A18   A(11,7,14)            109.7397         estimate D2E/DX2                !
 ! A19   A(6,8,12)             109.2016         estimate D2E/DX2                !
 ! A20   A(6,8,17)             137.5973         estimate D2E/DX2                !
 ! A21   A(12,8,17)            112.9992         estimate D2E/DX2                !
 ! A22   A(11,10,12)           102.5969         estimate D2E/DX2                !
 ! A23   A(7,11,10)            145.3321         estimate D2E/DX2                !
 ! A24   A(8,12,10)            145.3578         estimate D2E/DX2                !
 ! A25   A(14,13,15)           105.4658         estimate D2E/DX2                !
 ! A26   A(7,14,13)            163.3071         estimate D2E/DX2                !
 ! A27   A(17,16,18)           105.5613         estimate D2E/DX2                !
 ! A28   A(8,17,16)            162.5271         estimate D2E/DX2                !
 ! A29   A(1,19,20)            109.4712         estimate D2E/DX2                !
 ! A30   A(1,19,21)            109.4712         estimate D2E/DX2                !
 ! A31   A(1,19,22)            109.4712         estimate D2E/DX2                !
 ! A32   A(20,19,21)           109.4712         estimate D2E/DX2                !
 ! A33   A(20,19,22)           109.4713         estimate D2E/DX2                !
 ! A34   A(21,19,22)           109.4712         estimate D2E/DX2                !
 ! A35   A(19,22,23)           119.8865         estimate D2E/DX2                !
 ! A36   A(19,22,24)           120.2269         estimate D2E/DX2                !
 ! A37   A(23,22,24)           119.8865         estimate D2E/DX2                !
 ! A38   A(22,24,25)           120.2269         estimate D2E/DX2                !
 ! A39   A(22,24,26)           119.8865         estimate D2E/DX2                !
 ! A40   A(25,24,26)           119.8865         estimate D2E/DX2                !
 ! D1    D(2,1,4,5)            163.8822         estimate D2E/DX2                !
 ! D2    D(2,1,4,6)             31.8542         estimate D2E/DX2                !
 ! D3    D(3,1,4,5)             46.6154         estimate D2E/DX2                !
 ! D4    D(3,1,4,6)            -85.4126         estimate D2E/DX2                !
 ! D5    D(19,1,4,5)           -77.7098         estimate D2E/DX2                !
 ! D6    D(19,1,4,6)           150.2622         estimate D2E/DX2                !
 ! D7    D(2,1,19,20)          166.5211         estimate D2E/DX2                !
 ! D8    D(2,1,19,21)           46.5211         estimate D2E/DX2                !
 ! D9    D(2,1,19,22)          -73.4788         estimate D2E/DX2                !
 ! D10   D(3,1,19,20)          -77.8606         estimate D2E/DX2                !
 ! D11   D(3,1,19,21)          162.1394         estimate D2E/DX2                !
 ! D12   D(3,1,19,22)           42.1394         estimate D2E/DX2                !
 ! D13   D(4,1,19,20)           48.4763         estimate D2E/DX2                !
 ! D14   D(4,1,19,21)          -71.5237         estimate D2E/DX2                !
 ! D15   D(4,1,19,22)          168.4763         estimate D2E/DX2                !
 ! D16   D(1,4,6,7)            121.8036         estimate D2E/DX2                !
 ! D17   D(1,4,6,8)              9.4499         estimate D2E/DX2                !
 ! D18   D(1,4,6,9)           -114.9771         estimate D2E/DX2                !
 ! D19   D(5,4,6,7)             -8.74           estimate D2E/DX2                !
 ! D20   D(5,4,6,8)           -121.0937         estimate D2E/DX2                !
 ! D21   D(5,4,6,9)            114.4794         estimate D2E/DX2                !
 ! D22   D(4,6,7,11)          -107.4227         estimate D2E/DX2                !
 ! D23   D(4,6,7,14)            94.4021         estimate D2E/DX2                !
 ! D24   D(8,6,7,11)             2.0337         estimate D2E/DX2                !
 ! D25   D(8,6,7,14)          -156.1415         estimate D2E/DX2                !
 ! D26   D(9,6,7,11)           138.5742         estimate D2E/DX2                !
 ! D27   D(9,6,7,14)           -19.601          estimate D2E/DX2                !
 ! D28   D(4,6,8,12)           105.1803         estimate D2E/DX2                !
 ! D29   D(4,6,8,17)           -69.0364         estimate D2E/DX2                !
 ! D30   D(7,6,8,12)            -2.1313         estimate D2E/DX2                !
 ! D31   D(7,6,8,17)          -176.348          estimate D2E/DX2                !
 ! D32   D(9,6,8,12)          -138.7975         estimate D2E/DX2                !
 ! D33   D(9,6,8,17)            46.9858         estimate D2E/DX2                !
 ! D34   D(6,7,11,10)            0.1401         estimate D2E/DX2                !
 ! D35   D(14,7,11,10)         164.8911         estimate D2E/DX2                !
 ! D36   D(6,7,14,13)           15.3055         estimate D2E/DX2                !
 ! D37   D(11,7,14,13)        -142.7992         estimate D2E/DX2                !
 ! D38   D(6,8,12,10)            0.3284         estimate D2E/DX2                !
 ! D39   D(17,8,12,10)         176.0951         estimate D2E/DX2                !
 ! D40   D(6,8,17,16)          -37.4792         estimate D2E/DX2                !
 ! D41   D(12,8,17,16)         148.4545         estimate D2E/DX2                !
 ! D42   D(12,10,11,7)          -1.9454         estimate D2E/DX2                !
 ! D43   D(11,10,12,8)           1.6717         estimate D2E/DX2                !
 ! D44   D(15,13,14,7)          -0.1267         estimate D2E/DX2                !
 ! D45   D(18,16,17,8)           3.4836         estimate D2E/DX2                !
 ! D46   D(1,19,22,23)          60.0            estimate D2E/DX2                !
 ! D47   D(1,19,22,24)        -120.0            estimate D2E/DX2                !
 ! D48   D(20,19,22,23)        180.0            estimate D2E/DX2                !
 ! D49   D(20,19,22,24)          0.0            estimate D2E/DX2                !
 ! D50   D(21,19,22,23)        -60.0            estimate D2E/DX2                !
 ! D51   D(21,19,22,24)        120.0            estimate D2E/DX2                !
 ! D52   D(19,22,24,25)          0.0            estimate D2E/DX2                !
 ! D53   D(19,22,24,26)       -180.0            estimate D2E/DX2                !
 ! D54   D(23,22,24,25)        180.0            estimate D2E/DX2                !
 ! D55   D(23,22,24,26)          0.0            estimate D2E/DX2                !
 --------------------------------------------------------------------------------
 Trust Radius=3.00D-01 FncErr=1.00D-07 GrdErr=1.00D-06
 Number of steps in this run= 131 maximum allowed number of steps= 156.
 GradGradGradGradGradGradGradGradGradGradGradGradGradGradGradGradGradGrad

 Leave Link  103 at Sun Jul 27 19:49:43 2008, MaxMem=  536870912 cpu:       0.4
 (Enter /usr/local/Chem-Apps/g03_d01/g03/l202.exe)
                          Input orientation:                          
 ---------------------------------------------------------------------
 Center     Atomic     Atomic              Coordinates (Angstroms)
 Number     Number      Type              X           Y           Z
 ---------------------------------------------------------------------
    1          6             0        2.043564   -0.601973   -0.461232
    2          1             0        2.199026    0.420314   -0.054247
    3          1             0        2.124699   -0.513936   -1.567986
    4          7             0        0.728301   -1.062620   -0.010373
    5          1             0        0.455291   -1.847030   -0.564150
    6         15             0       -0.661368    0.133871    0.244275
    7          8             0       -1.751245   -0.444636   -0.738148
    8          8             0       -0.126648    1.490822   -0.356820
    9         16             0       -1.058020    0.075161    2.264717
   10          8             0       -1.573445    1.458471   -2.595784
   11          1             0       -1.898701    0.644331   -2.171443
   12          1             0       -0.930249    1.794213   -1.946140
   13          8             0       -3.853260   -2.074323   -0.357454
   14          1             0       -3.115235   -1.515571   -0.672908
   15          1             0       -3.841974   -1.997925    0.590705
   16          8             0        1.667668    3.279573    0.523476
   17          1             0        1.078125    2.674546    0.029485
   18          1             0        1.492102    3.112451    1.443112
   19          6             0        3.168624   -1.508161    0.072307
   20          1             0        2.916942   -2.532512   -0.107306
   21          1             0        3.286439   -1.348921    1.123812
   22          6             0        4.486352   -1.169234   -0.649026
   23          1             0        4.893358   -0.182079   -0.579954
   24          6             0        5.132232   -2.116961   -1.370982
   25          1             0        4.730117   -3.105855   -1.443724
   26          1             0        6.047443   -1.875516   -1.869975
 ---------------------------------------------------------------------
                    Distance matrix (angstroms):
                    1          2          3          4          5
     1  C    0.000000
     2  H    1.111250   0.000000
     3  H    1.113211   1.780380   0.000000
     4  N    1.464714   2.089031   2.162670   0.000000
     5  H    2.020735   2.905419   2.360455   0.998250   0.000000
     6  P    2.890651   2.890159   3.386165   1.851382   2.413389
     7  O    3.808151   4.101280   3.964388   2.657011   2.620264
     8  O    3.016706   2.578041   3.248775   2.714964   3.394539
     9  S    4.184391   4.013113   5.016607   3.108299   3.739976
    10  O    4.678087   4.665696   4.315441   4.282322   4.378315
    11  H    4.474321   4.617799   4.230070   3.805922   3.785703
    12  H    4.097587   3.906305   3.847500   3.828770   4.133796
    13  O    6.078743   6.553267   6.295728   4.704754   4.319490
    14  H    5.243346   5.689619   5.409376   3.926434   3.587527
    15  H    6.139610   6.538924   6.516391   4.703563   4.452297
    16  O    4.022107   2.965041   4.355893   4.474600   5.379112
    17  H    3.450863   2.518927   3.716672   3.753715   4.602714
    18  H    4.210414   3.160606   4.755794   4.486338   5.449819
    19  C    1.540000   2.162210   2.183764   2.482039   2.807505
    20  H    2.148263   3.039309   2.614552   2.638205   2.595827
    21  H    2.148263   2.387569   3.048379   2.812901   3.333576
    22  C    2.514809   2.848208   2.617500   3.813423   4.088528
    23  H    2.883007   2.810457   2.958346   4.295052   4.740121
    24  C    3.558469   4.095760   3.413759   4.728372   4.753695
    25  H    3.801616   4.557515   3.677185   4.716337   4.542294
    26  H    4.431423   4.835082   4.163294   5.693170   5.742661
                    6          7          8          9         10
     6  P    0.000000
     7  O    1.577231   0.000000
     8  O    1.577516   2.555528   0.000000
     9  S    2.059846   3.125372   3.121539   0.000000
    10  O    3.263799   2.665378   2.665938   5.079732   0.000000
    11  H    2.761749   1.806081   2.673869   4.550848   0.974002
    12  H    2.761693   2.673149   1.806588   4.550031   0.973890
    13  O    3.927642   2.686871   5.157315   4.394250   4.763225
    14  H    3.095698   1.735404   4.250878   3.923290   3.862576
    15  H    3.844584   2.923988   5.183899   3.853622   5.219828
    16  O    3.924003   5.210604   2.682186   4.552972   4.852938
    17  H    3.086584   4.280641   1.732603   4.039329   3.924500
    18  H    3.866081   5.284890   2.913724   4.050097   5.333471
    19  C    4.170693   5.098336   4.476256   5.017777   6.197325
    20  H    4.476327   5.152587   5.051031   5.312888   6.502618
    21  H    4.307835   5.446364   4.680339   4.712112   6.733151
    22  C    5.384709   6.280175   5.333015   6.385803   6.885916
    23  H    5.624425   6.651670   5.296116   6.601305   6.969542
    24  C    6.421923   7.111920   6.457588   7.506192   7.697399
    25  H    6.512548   7.041873   6.774878   7.574558   7.867351
    26  H    7.315451   8.009243   7.193140   8.449167   8.349862
                   11         12         13         14         15
    11  H    0.000000
    12  H    1.520161   0.000000
    13  O    3.808141   5.102302   0.000000
    14  H    2.896677   4.165328   0.977955   0.000000
    15  H    4.288040   5.412396   0.951299   1.535426   0.000000
    16  O    5.189034   3.880009   7.740858   6.877565   7.629722
    17  H    4.222245   2.951550   6.857116   5.969481   6.808401
    18  H    5.536621   4.369504   7.662738   6.864669   7.436055
    19  C    5.945201   5.637425   7.057768   6.327897   7.046779
    20  H    6.127267   6.074762   6.790298   6.143389   6.815860
    21  H    6.458904   6.089693   7.327732   6.651120   7.177721
    22  C    6.809969   6.309048   8.393648   7.609510   8.460773
    23  H    7.024803   6.299730   8.951727   8.119385   8.998542
    24  C    7.596018   7.237524   9.042573   8.298776   9.186879
    25  H    7.650798   7.503522   8.713117   8.041935   8.879592
    26  H    8.341565   7.884218  10.017542   9.247551  10.191687
                   16         17         18         19         20
    16  O    0.000000
    17  H    0.978594   0.000000
    18  H    0.951043   1.536710   0.000000
    19  C    5.037739   4.676222   5.102929   0.000000
    20  H    5.978202   5.523895   6.024913   1.070000   0.000000
    21  H    4.940019   4.718315   4.819278   1.070000   1.747303
    22  C    5.395519   5.181798   5.628091   1.540000   2.148263
    23  H    4.858567   4.804969   5.149298   2.271265   3.107113
    24  C    6.686909   6.430834   6.965373   2.511867   2.584002
    25  H    7.349977   6.994314   7.581946   2.699859   2.324293
    26  H    7.175373   7.000367   7.523795   3.492135   3.652216
                   21         22         23         24         25
    21  H    0.000000
    22  C    2.148263   0.000000
    23  H    2.616587   1.070000   0.000000
    24  C    3.197004   1.355200   2.103938   0.000000
    25  H    3.429761   2.107479   3.053066   1.070000   0.000000
    26  H    4.106483   2.103938   2.421528   1.070000   1.852234
                   26
    26  H    0.000000
 Stoichiometry    C4H14NO5PS(2-)
 Framework group  C1[X(C4H14NO5PS)]
 Deg. of freedom    72
 Full point group                 C1
 Largest Abelian subgroup         C1      NOp   1
 Largest concise Abelian subgroup C1      NOp   1
                         Standard orientation:                         
 ---------------------------------------------------------------------
 Center     Atomic     Atomic              Coordinates (Angstroms)
 Number     Number      Type              X           Y           Z
 ---------------------------------------------------------------------
    1          6             0       -1.766821   -0.264889    0.151423
    2          1             0       -1.730648    0.819408   -0.089134
    3          1             0       -1.946797   -0.336459    1.247655
    4          7             0       -0.492866   -0.853962   -0.267409
    5          1             0       -0.393943   -1.747573    0.166382
    6         15             0        1.073726    0.130966   -0.209764
    7          8             0        1.962690   -0.757771    0.742889
    8          8             0        0.682188    1.446815    0.567278
    9         16             0        1.661639    0.321559   -2.174706
   10          8             0        1.873242    0.840524    2.874014
   11          1             0        2.119016    0.060141    2.345546
   12          1             0        1.354920    1.370242    2.242190
   13          8             0        3.834953   -2.622845    0.257704
   14          1             0        3.157119   -2.009092    0.604467
   15          1             0        3.931551   -2.400624   -0.662218
   16          8             0       -0.735681    3.612125   -0.136427
   17          1             0       -0.293201    2.852292    0.293121
   18          1             0       -0.493265    3.562751   -1.054730
   19          6             0       -2.950674   -0.887507   -0.611754
   20          1             0       -2.869259   -1.954131   -0.587579
   21          1             0       -2.936422   -0.551647   -1.627576
   22          6             0       -4.272216   -0.458370    0.052301
   23          1             0       -4.523151    0.579678    0.118540
   24          6             0       -5.118444   -1.390949    0.553063
   25          1             0       -4.872949   -2.430480    0.489761
   26          1             0       -6.035226   -1.086692    1.013322
 ---------------------------------------------------------------------
 Rotational constants (GHZ):      0.6326160      0.3088846      0.2840557
 Leave Link  202 at Sun Jul 27 19:49:43 2008, MaxMem=  536870912 cpu:       0.6
 (Enter /usr/local/Chem-Apps/g03_d01/g03/l301.exe)
 Standard basis: Aug-CC-pVDZ (5D, 7F)
 There are   410 symmetry adapted basis functions of A   symmetry.
 Integral buffers will be    131072 words long.
 Raffenetti 2 integral format.
 Two-electron integral symmetry is turned on.
   410 basis functions,   750 primitive gaussians,   434 cartesian basis functions
    59 alpha electrons       59 beta electrons
       nuclear repulsion energy       971.6116581590 Hartrees.
 IExCor= 402 DFT=T Ex=B+HF Corr=LYP ExCW=0 ScaHFX=  0.200000
 ScaDFX=  0.800000  0.720000  1.000000  0.810000
 IRadAn=      0 IRanWt=     -1 IRanGd=            0 ICorTp=0
 NAtoms=   26 NActive=   26 NUniq=   26 SFac= 7.50D-01 NAtFMM=   80 NAOKFM=F Big=F
 Leave Link  301 at Sun Jul 27 19:49:43 2008, MaxMem=  536870912 cpu:       0.4
 (Enter /usr/local/Chem-Apps/g03_d01/g03/l302.exe)
 NPDir=0 NMtPBC=     1 NCelOv=     1 NCel=       1 NClECP=     1 NCelD=      1
         NCelK=      1 NCelE2=     1 NClLst=     1 CellRange=     0.0.
 One-electron integrals computed using PRISM.
 NBasis=   410 RedAO= T  NBF=   410
 NBsUse=   410 1.00D-06 NBFU=   410
 Precomputing XC quadrature grid using
 IXCGrd= 2 IRadAn=           0 IRanWt=          -1 IRanGd=           0.
 NRdTot=    1706 NPtTot=      217570 NUsed=      229617 NTot=      229649
 NSgBfM=   432   432   432   432.
 Leave Link  302 at Sun Jul 27 19:49:44 2008, MaxMem=  536870912 cpu:      14.0
 (Enter /usr/local/Chem-Apps/g03_d01/g03/l303.exe)
 DipDrv:  MaxL=1.
 Leave Link  303 at Sun Jul 27 19:49:45 2008, MaxMem=  536870912 cpu:       1.5
 (Enter /usr/local/Chem-Apps/g03_d01/g03/l401.exe)
 Harris functional with IExCor=  402 diagonalized for initial guess.
 ExpMin= 2.97D-02 ExpMax= 1.11D+05 ExpMxC= 3.24D+03 IAcc=3 IRadAn=         5 AccDes= 0.00D+00
 HarFok:  IExCor= 402 AccDes= 0.00D+00 IRadAn=         5 IDoV=1
 ScaDFX=  1.000000  1.000000  1.000000  1.000000
 Harris En= -1332.13814622731    
 Initial guess orbital symmetries:
       Occupied  (A) (A) (A) (A) (A) (A) (A) (A) (A) (A) (A) (A)
                 (A) (A) (A) (A) (A) (A) (A) (A) (A) (A) (A) (A)
                 (A) (A) (A) (A) (A) (A) (A) (A) (A) (A) (A) (A)
                 (A) (A) (A) (A) (A) (A) (A) (A) (A) (A) (A) (A)
                 (A) (A) (A) (A) (A) (A) (A) (A) (A) (A) (A)
       Virtual   (A) (A) (A) (A) (A) (A) (A) (A) (A) (A) (A) (A)
                 (A) (A) (A) (A) (A) (A) (A) (A) (A) (A) (A) (A)
                 (A) (A) (A) (A) (A) (A) (A) (A) (A) (A) (A) (A)
                 (A) (A) (A) (A) (A) (A) (A) (A) (A) (A) (A) (A)
                 (A) (A) (A) (A) (A) (A) (A) (A) (A) (A) (A) (A)
                 (A) (A) (A) (A) (A) (A) (A) (A) (A) (A) (A) (A)
                 (A) (A) (A) (A) (A) (A) (A) (A) (A) (A) (A) (A)
                 (A) (A) (A) (A) (A) (A) (A) (A) (A) (A) (A) (A)
                 (A) (A) (A) (A) (A) (A) (A) (A) (A) (A) (A) (A)
                 (A) (A) (A) (A) (A) (A) (A) (A) (A) (A) (A) (A)
                 (A) (A) (A) (A) (A) (A) (A) (A) (A) (A) (A) (A)
                 (A) (A) (A) (A) (A) (A) (A) (A) (A) (A) (A) (A)
                 (A) (A) (A) (A) (A) (A) (A) (A) (A) (A) (A) (A)
                 (A) (A) (A) (A) (A) (A) (A) (A) (A) (A) (A) (A)
                 (A) (A) (A) (A) (A) (A) (A) (A) (A) (A) (A) (A)
                 (A) (A) (A) (A) (A) (A) (A) (A) (A) (A) (A) (A)
                 (A) (A) (A) (A) (A) (A) (A) (A) (A) (A) (A) (A)
                 (A) (A) (A) (A) (A) (A) (A) (A) (A) (A) (A) (A)
                 (A) (A) (A) (A) (A) (A) (A) (A) (A) (A) (A) (A)
                 (A) (A) (A) (A) (A) (A) (A) (A) (A) (A) (A) (A)
                 (A) (A) (A) (A) (A) (A) (A) (A) (A) (A) (A) (A)
                 (A) (A) (A) (A) (A) (A) (A) (A) (A) (A) (A) (A)
                 (A) (A) (A) (A) (A) (A) (A) (A) (A) (A) (A) (A)
                 (A) (A) (A) (A) (A) (A) (A) (A) (A) (A) (A) (A)
                 (A) (A) (A) (A) (A) (A) (A) (A) (A) (A) (A) (A)
                 (A) (A) (A) (A) (A) (A) (A) (A) (A) (A) (A) (A)
                 (A) (A) (A) (A) (A) (A) (A) (A) (A) (A) (A) (A)
                 (A) (A) (A) (A) (A) (A) (A) (A) (A) (A) (A) (A)
                 (A) (A) (A) (A) (A) (A) (A) (A) (A) (A) (A) (A)
                 (A) (A) (A)
 The electronic state of the initial guess is 1-A.
 Leave Link  401 at Sun Jul 27 19:49:49 2008, MaxMem=  536870912 cpu:      59.2
 (Enter /usr/local/Chem-Apps/g03_d01/g03/l502.exe)
 Closed shell SCF:
 Requested convergence on RMS density matrix=1.00D-08 within 128 cycles.
 Requested convergence on MAX density matrix=1.00D-06.
 Requested convergence on             energy=1.00D-06.
 No special actions if energy rises.
 Using DIIS extrapolation, IDIIS=  1040.
 Integral symmetry usage will be decided dynamically.
       229616 words used for storage of precomputed grid.
 IEnd=    915945 IEndB=    915945 NGot= 536870912 MDV= 536160398
 LenX= 536160398
 Fock matrices will be formed incrementally for  20 cycles.

 Cycle   1  Pass 1  IDiag  1:
 Petite list used in FoFDir.
 MinBra= 0 MaxBra= 2 Meth= 1.
 IRaf=       0 NMat=   1 IRICut=       1 DoRegI=T DoRafI=F ISym2E= 1 JSym2E=1.
 E= -1330.75516000310    
 DIIS: error= 2.64D-02 at cycle   1 NSaved=   1.
 NSaved= 1 IEnMin= 1 EnMin= -1330.75516000310     IErMin= 1 ErrMin= 2.64D-02
 ErrMax= 2.64D-02 EMaxC= 1.00D-01 BMatC= 8.80D-01 BMatP= 8.80D-01
 IDIUse=3 WtCom= 7.36D-01 WtEn= 2.64D-01
 Coeff-Com:  0.100D+01
 Coeff-En:   0.100D+01
 Coeff:      0.100D+01
 Gap=     0.157 Goal=   None    Shift=    0.000
 GapD=    0.157 DampG=1.000 DampE=0.500 DampFc=0.5000 IDamp=-1.
 Damping current iteration by 5.00D-01
 RMSDP=9.37D-01 MaxDP=7.68D+01              OVMax= 9.96D-01

 Cycle   2  Pass 1  IDiag  1:
 RMSU=  4.67D-01    CP:  2.69D+00
 E= -1328.28754001664     Delta-E=        2.467619986462 Rises=F Damp=T
 DIIS: error= 3.17D-02 at cycle   2 NSaved=   2.
 NSaved= 2 IEnMin= 1 EnMin= -1330.75516000310     IErMin= 1 ErrMin= 2.64D-02
 ErrMax= 3.17D-02 EMaxC= 1.00D-01 BMatC= 7.73D-01 BMatP= 8.80D-01
 IDIUse=3 WtCom= 6.83D-01 WtEn= 3.17D-01
 Coeff-Com:  0.480D+00 0.520D+00
 Coeff-En:   0.833D+00 0.167D+00
 Coeff:      0.592D+00 0.408D+00
 Gap=    -0.253 Goal=   None    Shift=    0.000
 RMSDP=4.69D-01 MaxDP=3.84D+01 DE= 2.47D+00 OVMax= 8.32D-01

 Cycle   3  Pass 1  IDiag  1:
 RMSU=  5.79D-03    CP:  8.11D-01 -1.20D-04
 E= -1330.72274521650     Delta-E=       -2.435205199860 Rises=F Damp=F
 DIIS: error= 2.49D-02 at cycle   3 NSaved=   3.
 NSaved= 3 IEnMin= 1 EnMin= -1330.75516000310     IErMin= 3 ErrMin= 2.49D-02
 ErrMax= 2.49D-02 EMaxC= 1.00D-01 BMatC= 7.21D-01 BMatP= 7.73D-01
 IDIUse=3 WtCom= 7.51D-01 WtEn= 2.49D-01
 EnCoef did     2 forward-backward iterations
 Coeff-Com:  0.319D+00 0.380D+00 0.301D+00
 Coeff-En:   0.439D+00 0.121D+00 0.439D+00
 Coeff:      0.349D+00 0.316D+00 0.335D+00
 Gap=     0.225 Goal=   None    Shift=    0.000
 RMSDP=2.62D-03 MaxDP=1.82D-01 DE=-2.44D+00 OVMax= 1.95D-01

 Cycle   4  Pass 1  IDiag  1:
 RMSU=  1.80D-03    CP:  8.32D-01 -2.44D-04  6.82D-01
 E= -1331.46687275912     Delta-E=       -0.744127542624 Rises=F Damp=F
 DIIS: error= 4.77D-03 at cycle   4 NSaved=   4.
 NSaved= 4 IEnMin= 4 EnMin= -1331.46687275912     IErMin= 4 ErrMin= 4.77D-03
 ErrMax= 4.77D-03 EMaxC= 1.00D-01 BMatC= 2.93D-02 BMatP= 7.21D-01
 IDIUse=3 WtCom= 9.52D-01 WtEn= 4.77D-02
 Coeff-Com:  0.275D-01 0.155D+00 0.187D-01 0.799D+00
 Coeff-En:   0.000D+00 0.000D+00 0.000D+00 0.100D+01
 Coeff:      0.262D-01 0.148D+00 0.178D-01 0.808D+00
 Gap=     0.164 Goal=   None    Shift=    0.000
 RMSDP=1.03D-03 MaxDP=5.42D-02 DE=-7.44D-01 OVMax= 5.75D-02

 Cycle   5  Pass 1  IDiag  1:
 RMSU=  9.61D-04    CP:  8.42D-01 -2.04D-04  6.30D-01  1.04D+00
 E= -1331.48362697498     Delta-E=       -0.016754215860 Rises=F Damp=F
 DIIS: error= 5.57D-03 at cycle   5 NSaved=   5.
 NSaved= 5 IEnMin= 5 EnMin= -1331.48362697498     IErMin= 4 ErrMin= 4.77D-03
 ErrMax= 5.57D-03 EMaxC= 1.00D-01 BMatC= 2.85D-02 BMatP= 2.93D-02
 IDIUse=3 WtCom= 9.44D-01 WtEn= 5.57D-02
 Coeff-Com: -0.775D-01 0.682D-01-0.113D+00 0.437D+00 0.685D+00
 Coeff-En:   0.000D+00 0.000D+00 0.000D+00 0.279D-01 0.972D+00
 Coeff:     -0.732D-01 0.644D-01-0.107D+00 0.415D+00 0.701D+00
 Gap=     0.093 Goal=   None    Shift=    0.000
 RMSDP=6.78D-04 MaxDP=3.31D-02 DE=-1.68D-02 OVMax= 4.26D-02

 Cycle   6  Pass 1  IDiag  1:
 RMSU=  5.33D-04    CP:  8.38D-01 -1.61D-04  6.39D-01  1.25D+00  1.18D+00
 E= -1331.51335486117     Delta-E=       -0.029727886190 Rises=F Damp=F
 DIIS: error= 1.64D-03 at cycle   6 NSaved=   6.
 NSaved= 6 IEnMin= 6 EnMin= -1331.51335486117     IErMin= 6 ErrMin= 1.64D-03
 ErrMax= 1.64D-03 EMaxC= 1.00D-01 BMatC= 2.38D-03 BMatP= 2.85D-02
 IDIUse=3 WtCom= 9.84D-01 WtEn= 1.64D-02
 Coeff-Com: -0.366D-01 0.205D-01-0.584D-01-0.632D-02 0.243D+00 0.838D+00
 Coeff-En:   0.000D+00 0.000D+00 0.000D+00 0.000D+00 0.000D+00 0.100D+01
 Coeff:     -0.360D-01 0.202D-01-0.575D-01-0.621D-02 0.239D+00 0.841D+00
 Gap=     0.071 Goal=   None    Shift=    0.000
 RMSDP=4.12D-04 MaxDP=2.43D-02 DE=-2.97D-02 OVMax= 1.97D-02

 Cycle   7  Pass 1  IDiag  1:
 RMSU=  2.59D-04    CP:  8.40D-01 -1.24D-04  6.24D-01  1.30D+00  1.45D+00
                    CP:  1.25D+00
 E= -1331.51587647420     Delta-E=       -0.002521613032 Rises=F Damp=F
 DIIS: error= 7.09D-04 at cycle   7 NSaved=   7.
 NSaved= 7 IEnMin= 7 EnMin= -1331.51587647420     IErMin= 7 ErrMin= 7.09D-04
 ErrMax= 7.09D-04 EMaxC= 1.00D-01 BMatC= 7.88D-04 BMatP= 2.38D-03
 IDIUse=3 WtCom= 9.93D-01 WtEn= 7.09D-03
 Coeff-Com: -0.843D-02 0.350D-02-0.150D-01-0.914D-01-0.242D-01 0.524D+00
 Coeff-Com:  0.612D+00
 Coeff-En:   0.000D+00 0.000D+00 0.000D+00 0.000D+00 0.000D+00 0.000D+00
 Coeff-En:   0.100D+01
 Coeff:     -0.837D-02 0.348D-02-0.149D-01-0.908D-01-0.240D-01 0.520D+00
 Coeff:      0.614D+00
 Gap=     0.067 Goal=   None    Shift=    0.000
 RMSDP=1.62D-04 MaxDP=1.05D-02 DE=-2.52D-03 OVMax= 6.47D-03

 Cycle   8  Pass 1  IDiag  1:
 RMSU=  1.06D-04    CP:  8.40D-01 -1.06D-04  6.20D-01  1.32D+00  1.53D+00
                    CP:  1.41D+00  1.02D+00
 E= -1331.51657019551     Delta-E=       -0.000693721307 Rises=F Damp=F
 DIIS: error= 1.91D-04 at cycle   8 NSaved=   8.
 NSaved= 8 IEnMin= 8 EnMin= -1331.51657019551     IErMin= 8 ErrMin= 1.91D-04
 ErrMax= 1.91D-04 EMaxC= 1.00D-01 BMatC= 6.96D-05 BMatP= 7.88D-04
 IDIUse=3 WtCom= 9.98D-01 WtEn= 1.91D-03
 Coeff-Com:  0.930D-03 0.792D-03 0.752D-03-0.417D-01-0.549D-01 0.154D+00
 Coeff-Com:  0.346D+00 0.594D+00
 Coeff-En:   0.000D+00 0.000D+00 0.000D+00 0.000D+00 0.000D+00 0.000D+00
 Coeff-En:   0.000D+00 0.100D+01
 Coeff:      0.928D-03 0.791D-03 0.751D-03-0.416D-01-0.548D-01 0.154D+00
 Coeff:      0.346D+00 0.595D+00
 Gap=     0.067 Goal=   None    Shift=    0.000
 RMSDP=5.94D-05 MaxDP=3.63D-03 DE=-6.94D-04 OVMax= 3.37D-03

 Cycle   9  Pass 1  IDiag  1:
 RMSU=  3.69D-05    CP:  8.40D-01 -1.03D-04  6.20D-01  1.33D+00  1.55D+00
                    CP:  1.47D+00  1.10D+00  8.63D-01
 E= -1331.51665115914     Delta-E=       -0.000080963628 Rises=F Damp=F
 DIIS: error= 5.15D-05 at cycle   9 NSaved=   9.
 NSaved= 9 IEnMin= 9 EnMin= -1331.51665115914     IErMin= 9 ErrMin= 5.15D-05
 ErrMax= 5.15D-05 EMaxC= 1.00D-01 BMatC= 5.88D-06 BMatP= 6.96D-05
 IDIUse=1 WtCom= 1.00D+00 WtEn= 0.00D+00
 Coeff-Com:  0.842D-03 0.686D-04 0.125D-02-0.146D-01-0.275D-01 0.398D-01
 Coeff-Com:  0.135D+00 0.313D+00 0.553D+00
 Coeff:      0.842D-03 0.686D-04 0.125D-02-0.146D-01-0.275D-01 0.398D-01
 Coeff:      0.135D+00 0.313D+00 0.553D+00
 Gap=     0.066 Goal=   None    Shift=    0.000
 RMSDP=1.85D-05 MaxDP=1.22D-03 DE=-8.10D-05 OVMax= 6.65D-04

 Cycle  10  Pass 1  IDiag  1:
 RMSU=  1.06D-05    CP:  8.40D-01 -9.99D-05  6.20D-01  1.33D+00  1.56D+00
                    CP:  1.48D+00  1.13D+00  9.10D-01  8.89D-01
 E= -1331.51665645746     Delta-E=       -0.000005298319 Rises=F Damp=F
 DIIS: error= 2.14D-05 at cycle  10 NSaved=  10.
 NSaved=10 IEnMin=10 EnMin= -1331.51665645746     IErMin=10 ErrMin= 2.14D-05
 ErrMax= 2.14D-05 EMaxC= 1.00D-01 BMatC= 7.48D-07 BMatP= 5.88D-06
 IDIUse=1 WtCom= 1.00D+00 WtEn= 0.00D+00
 Coeff-Com:  0.320D-03-0.142D-04 0.622D-03-0.393D-02-0.967D-02 0.663D-02
 Coeff-Com:  0.406D-01 0.118D+00 0.315D+00 0.533D+00
 Coeff:      0.320D-03-0.142D-04 0.622D-03-0.393D-02-0.967D-02 0.663D-02
 Coeff:      0.406D-01 0.118D+00 0.315D+00 0.533D+00
 Gap=     0.066 Goal=   None    Shift=    0.000
 RMSDP=5.01D-06 MaxDP=5.31D-04 DE=-5.30D-06 OVMax= 2.05D-04

 Cycle  11  Pass 1  IDiag  1:
 RMSU=  3.30D-06    CP:  8.40D-01 -9.95D-05  6.20D-01  1.33D+00  1.56D+00
                    CP:  1.48D+00  1.14D+00  9.14D-01  9.14D-01  9.77D-01
 E= -1331.51665698317     Delta-E=       -0.000000525712 Rises=F Damp=F
 DIIS: error= 9.36D-06 at cycle  11 NSaved=  11.
 NSaved=11 IEnMin=11 EnMin= -1331.51665698317     IErMin=11 ErrMin= 9.36D-06
 ErrMax= 9.36D-06 EMaxC= 1.00D-01 BMatC= 1.14D-07 BMatP= 7.48D-07
 IDIUse=1 WtCom= 1.00D+00 WtEn= 0.00D+00
 Coeff-Com:  0.104D-03 0.273D-05 0.262D-03-0.877D-03-0.289D-02 0.526D-03
 Coeff-Com:  0.110D-01 0.391D-01 0.126D+00 0.325D+00 0.502D+00
 Coeff:      0.104D-03 0.273D-05 0.262D-03-0.877D-03-0.289D-02 0.526D-03
 Coeff:      0.110D-01 0.391D-01 0.126D+00 0.325D+00 0.502D+00
 Gap=     0.066 Goal=   None    Shift=    0.000
 RMSDP=1.62D-06 MaxDP=8.45D-05 DE=-5.26D-07 OVMax= 8.14D-05

 Cycle  12  Pass 1  IDiag  1:
 RMSU=  1.32D-06    CP:  8.40D-01 -9.95D-05  6.20D-01  1.33D+00  1.56D+00
                    CP:  1.48D+00  1.14D+00  9.15D-01  9.35D-01  9.86D-01
                    CP:  9.30D-01
 E= -1331.51665706877     Delta-E=       -0.000000085604 Rises=F Damp=F
 DIIS: error= 3.08D-06 at cycle  12 NSaved=  12.
 NSaved=12 IEnMin=12 EnMin= -1331.51665706877     IErMin=12 ErrMin= 3.08D-06
 ErrMax= 3.08D-06 EMaxC= 1.00D-01 BMatC= 1.27D-08 BMatP= 1.14D-07
 IDIUse=1 WtCom= 1.00D+00 WtEn= 0.00D+00
 Coeff-Com:  0.218D-04-0.507D-05 0.779D-04-0.413D-04-0.446D-03-0.298D-03
 Coeff-Com:  0.136D-02 0.797D-02 0.315D-01 0.125D+00 0.302D+00 0.533D+00
 Coeff:      0.218D-04-0.507D-05 0.779D-04-0.413D-04-0.446D-03-0.298D-03
 Coeff:      0.136D-02 0.797D-02 0.315D-01 0.125D+00 0.302D+00 0.533D+00
 Gap=     0.066 Goal=   None    Shift=    0.000
 RMSDP=6.54D-07 MaxDP=6.16D-05 DE=-8.56D-08 OVMax= 2.60D-05

 Cycle  13  Pass 1  IDiag  1:
 RMSU=  3.89D-07    CP:  8.40D-01 -9.94D-05  6.20D-01  1.33D+00  1.56D+00
                    CP:  1.48D+00  1.15D+00  9.17D-01  9.38D-01  1.01D+00
                    CP:  9.78D-01  9.70D-01
 E= -1331.51665708010     Delta-E=       -0.000000011328 Rises=F Damp=F
 DIIS: error= 7.85D-07 at cycle  13 NSaved=  13.
 NSaved=13 IEnMin=13 EnMin= -1331.51665708010     IErMin=13 ErrMin= 7.85D-07
 ErrMax= 7.85D-07 EMaxC= 1.00D-01 BMatC= 1.07D-09 BMatP= 1.27D-08
 IDIUse=1 WtCom= 1.00D+00 WtEn= 0.00D+00
 Coeff-Com:  0.285D-05-0.344D-05 0.118D-04 0.768D-04 0.945D-04-0.115D-03
 Coeff-Com: -0.395D-03 0.267D-04 0.241D-02 0.286D-01 0.965D-01 0.260D+00
 Coeff-Com:  0.613D+00
 Coeff:      0.285D-05-0.344D-05 0.118D-04 0.768D-04 0.945D-04-0.115D-03
 Coeff:     -0.395D-03 0.267D-04 0.241D-02 0.286D-01 0.965D-01 0.260D+00
 Coeff:      0.613D+00
 Gap=     0.066 Goal=   None    Shift=    0.000
 RMSDP=3.21D-07 MaxDP=2.66D-05 DE=-1.13D-08 OVMax= 1.07D-05

 Cycle  14  Pass 1  IDiag  1:
 RMSU=  1.37D-07    CP:  8.40D-01 -9.94D-05  6.20D-01  1.33D+00  1.56D+00
                    CP:  1.48D+00  1.15D+00  9.18D-01  9.40D-01  1.02D+00
                    CP:  1.00D+00  1.02D+00  1.05D+00
 E= -1331.51665708092     Delta-E=       -0.000000000814 Rises=F Damp=F
 DIIS: error= 3.17D-07 at cycle  14 NSaved=  14.
 NSaved=14 IEnMin=14 EnMin= -1331.51665708092     IErMin=14 ErrMin= 3.17D-07
 ErrMax= 3.17D-07 EMaxC= 1.00D-01 BMatC= 1.30D-10 BMatP= 1.07D-09
 IDIUse=1 WtCom= 1.00D+00 WtEn= 0.00D+00
 Coeff-Com:  0.157D-05-0.508D-06-0.430D-06 0.411D-04 0.872D-04 0.536D-06
 Coeff-Com: -0.286D-03-0.675D-03-0.177D-02 0.145D-02 0.155D-01 0.694D-01
 Coeff-Com:  0.314D+00 0.603D+00
 Coeff:      0.157D-05-0.508D-06-0.430D-06 0.411D-04 0.872D-04 0.536D-06
 Coeff:     -0.286D-03-0.675D-03-0.177D-02 0.145D-02 0.155D-01 0.694D-01
 Coeff:      0.314D+00 0.603D+00
 Gap=     0.066 Goal=   None    Shift=    0.000
 RMSDP=8.89D-08 MaxDP=6.13D-06 DE=-8.14D-10 OVMax= 4.58D-06

 Cycle  15  Pass 1  IDiag  1:
 RMSU=  4.94D-08    CP:  8.40D-01 -9.94D-05  6.20D-01  1.33D+00  1.56D+00
                    CP:  1.48D+00  1.15D+00  9.18D-01  9.41D-01  1.02D+00
                    CP:  1.01D+00  1.05D+00  1.10D+00  1.05D+00
 E= -1331.51665708097     Delta-E=       -0.000000000054 Rises=F Damp=F
 DIIS: error= 5.83D-08 at cycle  15 NSaved=  15.
 NSaved=15 IEnMin=15 EnMin= -1331.51665708097     IErMin=15 ErrMin= 5.83D-08
 ErrMax= 5.83D-08 EMaxC= 1.00D-01 BMatC= 6.36D-12 BMatP= 1.30D-10
 IDIUse=1 WtCom= 1.00D+00 WtEn= 0.00D+00
 Coeff-Com:  0.815D-06-0.194D-06-0.141D-05 0.962D-05 0.231D-04 0.862D-05
 Coeff-Com: -0.715D-04-0.216D-03-0.747D-03-0.195D-02-0.355D-02-0.390D-03
 Coeff-Com:  0.573D-01 0.219D+00 0.731D+00
 Coeff:      0.815D-06-0.194D-06-0.141D-05 0.962D-05 0.231D-04 0.862D-05
 Coeff:     -0.715D-04-0.216D-03-0.747D-03-0.195D-02-0.355D-02-0.390D-03
 Coeff:      0.573D-01 0.219D+00 0.731D+00
 Gap=     0.066 Goal=   None    Shift=    0.000
 RMSDP=3.42D-08 MaxDP=2.10D-06 DE=-5.37D-11 OVMax= 1.49D-06

 Cycle  16  Pass 1  IDiag  1:
 RMSU=  1.66D-08    CP:  8.40D-01 -9.94D-05  6.20D-01  1.33D+00  1.56D+00
                    CP:  1.48D+00  1.15D+00  9.18D-01  9.41D-01  1.02D+00
                    CP:  1.01D+00  1.06D+00  1.13D+00  1.10D+00  1.04D+00
 E= -1331.51665708118     Delta-E=       -0.000000000210 Rises=F Damp=F
 DIIS: error= 2.93D-08 at cycle  16 NSaved=  16.
 NSaved=16 IEnMin=16 EnMin= -1331.51665708118     IErMin=16 ErrMin= 2.93D-08
 ErrMax= 2.93D-08 EMaxC= 1.00D-01 BMatC= 1.54D-12 BMatP= 6.36D-12
 IDIUse=1 WtCom= 1.00D+00 WtEn= 0.00D+00
 Coeff-Com:  0.472D-06-0.433D-07-0.805D-06 0.282D-05 0.792D-05 0.544D-05
 Coeff-Com: -0.241D-04-0.833D-04-0.340D-03-0.138D-02-0.352D-02-0.601D-02
 Coeff-Com:  0.107D-01 0.846D-01 0.436D+00 0.481D+00
 Coeff:      0.472D-06-0.433D-07-0.805D-06 0.282D-05 0.792D-05 0.544D-05
 Coeff:     -0.241D-04-0.833D-04-0.340D-03-0.138D-02-0.352D-02-0.601D-02
 Coeff:      0.107D-01 0.846D-01 0.436D+00 0.481D+00
 Gap=     0.066 Goal=   None    Shift=    0.000
 RMSDP=9.57D-09 MaxDP=7.17D-07 DE=-2.10D-10 OVMax= 5.04D-07

 SCF Done:  E(RB+HF-LYP) =  -1331.51665708     A.U. after   16 cycles
             Convg  =    0.9567D-08             -V/T =  2.0043
             S**2   =   0.0000
 KE= 1.325789489053D+03 PE=-5.123395206438D+03 EE= 1.494477402145D+03
 Leave Link  502 at Sun Jul 27 19:53:16 2008, MaxMem=  536870912 cpu:    3256.8
 (Enter /usr/local/Chem-Apps/g03_d01/g03/l601.exe)
 Copying SCF densities to generalized density rwf, ISCF=0 IROHF=0.

 **********************************************************************

            Population analysis using the SCF density.

 **********************************************************************

 Orbital symmetries:
       Occupied  (A) (A) (A) (A) (A) (A) (A) (A) (A) (A) (A) (A)
                 (A) (A) (A) (A) (A) (A) (A) (A) (A) (A) (A) (A)
                 (A) (A) (A) (A) (A) (A) (A) (A) (A) (A) (A) (A)
                 (A) (A) (A) (A) (A) (A) (A) (A) (A) (A) (A) (A)
                 (A) (A) (A) (A) (A) (A) (A) (A) (A) (A) (A)
       Virtual   (A) (A) (A) (A) (A) (A) (A) (A) (A) (A) (A) (A)
                 (A) (A) (A) (A) (A) (A) (A) (A) (A) (A) (A) (A)
                 (A) (A) (A) (A) (A) (A) (A) (A) (A) (A) (A) (A)
                 (A) (A) (A) (A) (A) (A) (A) (A) (A) (A) (A) (A)
                 (A) (A) (A) (A) (A) (A) (A) (A) (A) (A) (A) (A)
                 (A) (A) (A) (A) (A) (A) (A) (A) (A) (A) (A) (A)
                 (A) (A) (A) (A) (A) (A) (A) (A) (A) (A) (A) (A)
                 (A) (A) (A) (A) (A) (A) (A) (A) (A) (A) (A) (A)
                 (A) (A) (A) (A) (A) (A) (A) (A) (A) (A) (A) (A)
                 (A) (A) (A) (A) (A) (A) (A) (A) (A) (A) (A) (A)
                 (A) (A) (A) (A) (A) (A) (A) (A) (A) (A) (A) (A)
                 (A) (A) (A) (A) (A) (A) (A) (A) (A) (A) (A) (A)
                 (A) (A) (A) (A) (A) (A) (A) (A) (A) (A) (A) (A)
                 (A) (A) (A) (A) (A) (A) (A) (A) (A) (A) (A) (A)
                 (A) (A) (A) (A) (A) (A) (A) (A) (A) (A) (A) (A)
                 (A) (A) (A) (A) (A) (A) (A) (A) (A) (A) (A) (A)
                 (A) (A) (A) (A) (A) (A) (A) (A) (A) (A) (A) (A)
                 (A) (A) (A) (A) (A) (A) (A) (A) (A) (A) (A) (A)
                 (A) (A) (A) (A) (A) (A) (A) (A) (A) (A) (A) (A)
                 (A) (A) (A) (A) (A) (A) (A) (A) (A) (A) (A) (A)
                 (A) (A) (A) (A) (A) (A) (A) (A) (A) (A) (A) (A)
                 (A) (A) (A) (A) (A) (A) (A) (A) (A) (A) (A) (A)
                 (A) (A) (A) (A) (A) (A) (A) (A) (A) (A) (A) (A)
                 (A) (A) (A) (A) (A) (A) (A) (A) (A) (A) (A) (A)
                 (A) (A) (A) (A) (A) (A) (A) (A) (A) (A) (A) (A)
                 (A) (A) (A) (A) (A) (A) (A) (A) (A) (A) (A) (A)
                 (A) (A) (A) (A) (A) (A) (A) (A) (A) (A) (A) (A)
                 (A) (A) (A) (A) (A) (A) (A) (A) (A) (A) (A) (A)
                 (A) (A) (A) (A) (A) (A) (A) (A) (A) (A) (A) (A)
                 (A) (A) (A)
 The electronic state is 1-A.
 Alpha  occ. eigenvalues --  -88.54691 -76.92957 -18.88843 -18.88185 -18.83810
 Alpha  occ. eigenvalues --  -18.81812 -18.81512 -14.05256 -10.02211 -10.01016
 Alpha  occ. eigenvalues --   -9.98262  -9.98094  -7.60779  -6.37425  -5.57247
 Alpha  occ. eigenvalues --   -5.56527  -5.56494  -4.53814  -4.53688  -4.53612
 Alpha  occ. eigenvalues --   -0.75410  -0.74750  -0.71143  -0.68753  -0.63375
 Alpha  occ. eigenvalues --   -0.63172  -0.60026  -0.51132  -0.40921  -0.39352
 Alpha  occ. eigenvalues --   -0.37854  -0.29639  -0.28120  -0.27239  -0.26432
 Alpha  occ. eigenvalues --   -0.24747  -0.23295  -0.22316  -0.19797  -0.17843
 Alpha  occ. eigenvalues --   -0.17040  -0.15604  -0.14017  -0.13705  -0.11279
 Alpha  occ. eigenvalues --   -0.10831  -0.10048  -0.09314  -0.08683  -0.06216
 Alpha  occ. eigenvalues --   -0.05611  -0.02598  -0.01342  -0.00334   0.00301
 Alpha  occ. eigenvalues --    0.00837   0.02263   0.05783   0.06109
 Alpha virt. eigenvalues --    0.12716   0.15094   0.15854   0.16225   0.18547
 Alpha virt. eigenvalues --    0.18936   0.19069   0.19741   0.20330   0.21926
 Alpha virt. eigenvalues --    0.22147   0.22755   0.22887   0.23280   0.23669
 Alpha virt. eigenvalues --    0.24093   0.24620   0.24821   0.25784   0.26034
 Alpha virt. eigenvalues --    0.26675   0.27527   0.27871   0.28353   0.28697
 Alpha virt. eigenvalues --    0.29174   0.30239   0.30479   0.30655   0.31191
 Alpha virt. eigenvalues --    0.31435   0.31512   0.32208   0.32825   0.33365
 Alpha virt. eigenvalues --    0.34792   0.35250   0.36048   0.36097   0.36546
 Alpha virt. eigenvalues --    0.36677   0.37166   0.37406   0.38189   0.38444
 Alpha virt. eigenvalues --    0.39137   0.39320   0.40102   0.40448   0.41114
 Alpha virt. eigenvalues --    0.41580   0.41734   0.41904   0.42531   0.42865
 Alpha virt. eigenvalues --    0.43231   0.43761   0.44041   0.44671   0.44787
 Alpha virt. eigenvalues --    0.45244   0.45858   0.46222   0.46554   0.47227
 Alpha virt. eigenvalues --    0.47351   0.47924   0.48421   0.49018   0.49671
 Alpha virt. eigenvalues --    0.49719   0.50444   0.50922   0.51754   0.52358
 Alpha virt. eigenvalues --    0.52555   0.53388   0.53689   0.53859   0.54849
 Alpha virt. eigenvalues --    0.55059   0.55708   0.55856   0.56179   0.57184
 Alpha virt. eigenvalues --    0.57337   0.57593   0.57766   0.58318   0.59315
 Alpha virt. eigenvalues --    0.60220   0.60531   0.61050   0.62000   0.62272
 Alpha virt. eigenvalues --    0.62619   0.63011   0.63575   0.64444   0.64942
 Alpha virt. eigenvalues --    0.65164   0.66007   0.66149   0.66765   0.67317
 Alpha virt. eigenvalues --    0.67734   0.68076   0.69185   0.69419   0.70804
 Alpha virt. eigenvalues --    0.70934   0.71785   0.72105   0.72685   0.73138
 Alpha virt. eigenvalues --    0.73634   0.74134   0.75069   0.75140   0.76115
 Alpha virt. eigenvalues --    0.76896   0.77375   0.77442   0.78216   0.78607
 Alpha virt. eigenvalues --    0.78866   0.79297   0.79590   0.80646   0.80979
 Alpha virt. eigenvalues --    0.81480   0.82352   0.82664   0.83798   0.84478
 Alpha virt. eigenvalues --    0.85520   0.86247   0.87126   0.87515   0.87939
 Alpha virt. eigenvalues --    0.88651   0.89608   0.90088   0.90867   0.91635
 Alpha virt. eigenvalues --    0.92020   0.92914   0.93607   0.94198   0.95550
 Alpha virt. eigenvalues --    0.97058   0.97807   0.98028   0.99141   0.99558
 Alpha virt. eigenvalues --    1.00659   1.02549   1.02989   1.04069   1.04414
 Alpha virt. eigenvalues --    1.05820   1.05999   1.07071   1.08082   1.09124
 Alpha virt. eigenvalues --    1.10144   1.10618   1.11874   1.12729   1.14657
 Alpha virt. eigenvalues --    1.15663   1.16566   1.17163   1.17458   1.18237
 Alpha virt. eigenvalues --    1.19813   1.20111   1.20695   1.21452   1.21638
 Alpha virt. eigenvalues --    1.22110   1.22654   1.23130   1.24641   1.25102
 Alpha virt. eigenvalues --    1.25378   1.27132   1.27549   1.28039   1.29048
 Alpha virt. eigenvalues --    1.29959   1.30443   1.31195   1.31544   1.32432
 Alpha virt. eigenvalues --    1.33071   1.34096   1.34610   1.35352   1.37419
 Alpha virt. eigenvalues --    1.38287   1.39466   1.39960   1.40530   1.43068
 Alpha virt. eigenvalues --    1.44420   1.44462   1.46189   1.48790   1.49405
 Alpha virt. eigenvalues --    1.51286   1.51626   1.51704   1.53772   1.54110
 Alpha virt. eigenvalues --    1.55321   1.55814   1.57349   1.58092   1.59807
 Alpha virt. eigenvalues --    1.60894   1.61680   1.63516   1.64154   1.65657
 Alpha virt. eigenvalues --    1.66656   1.67167   1.68055   1.68947   1.69530
 Alpha virt. eigenvalues --    1.72093   1.73581   1.74128   1.75241   1.76952
 Alpha virt. eigenvalues --    1.78127   1.79021   1.80421   1.81213   1.82206
 Alpha virt. eigenvalues --    1.83445   1.84630   1.87553   1.87844   1.89888
 Alpha virt. eigenvalues --    1.90076   1.92890   1.93089   1.94956   1.96009
 Alpha virt. eigenvalues --    1.96760   1.98774   2.01287   2.02968   2.04342
 Alpha virt. eigenvalues --    2.05231   2.05738   2.06381   2.07782   2.08893
 Alpha virt. eigenvalues --    2.09753   2.10943   2.11525   2.12749   2.13410
 Alpha virt. eigenvalues --    2.14400   2.16999   2.17230   2.19158   2.19861
 Alpha virt. eigenvalues --    2.20648   2.21728   2.24269   2.25633   2.26065
 Alpha virt. eigenvalues --    2.28833   2.29852   2.32208   2.34037   2.34129
 Alpha virt. eigenvalues --    2.40131   2.41638   2.42305   2.45708   2.46676
 Alpha virt. eigenvalues --    2.47581   2.49135   2.50315   2.51978   2.53561
 Alpha virt. eigenvalues --    2.58087   2.58702   2.60629   2.62287   2.62585
 Alpha virt. eigenvalues --    2.65371   2.66561   2.68501   2.70912   2.74361
 Alpha virt. eigenvalues --    2.76411   2.77561   2.80563   2.82893   2.83666
 Alpha virt. eigenvalues --    2.84993   2.85876   2.87356   2.91580   2.93118
 Alpha virt. eigenvalues --    2.95384   2.96738   2.96888   2.97985   3.01580
 Alpha virt. eigenvalues --    3.02868   3.04743   3.08391   3.12485   3.15166
 Alpha virt. eigenvalues --    3.18039   3.22731   3.25048   3.41312   3.47992
 Alpha virt. eigenvalues --    3.56305   3.58049   3.59011   3.61518   3.61927
 Alpha virt. eigenvalues --    3.64079   3.64793   3.66735   3.71226   3.73344
 Alpha virt. eigenvalues --    3.73956   3.76955   3.77463   3.79302   3.80789
 Alpha virt. eigenvalues --    3.83999   3.92994   3.94436   3.98182   4.03520
 Alpha virt. eigenvalues --    4.07252   4.15001   4.16282   4.27642   4.32512
 Alpha virt. eigenvalues --    4.43011
          Condensed to atoms (all electrons):
              1          2          3          4          5          6
     1  C    5.731589  -0.557462   0.196080   0.082335  -0.176209  -0.231558
     2  H   -0.557462   2.974483  -0.417184  -0.006067   0.035763  -0.088233
     3  H    0.196080  -0.417184   2.653891   0.020352  -0.137215   0.049400
     4  N    0.082335  -0.006067   0.020352   7.279648   0.406549  -0.112177
     5  H   -0.176209   0.035763  -0.137215   0.406549   1.056120  -0.085743
     6  P   -0.231558  -0.088233   0.049400  -0.112177  -0.085743  13.982375
     7  O    0.059532  -0.013505   0.015104  -0.112445  -0.019627   0.026743
     8  O    0.054418  -0.040553  -0.016966   0.090180   0.028651  -0.278595
     9  S    0.041971   0.008590  -0.006208  -0.070900  -0.003107   0.062365
    10  O   -0.021603   0.004795   0.000741  -0.025057   0.002973   0.064481
    11  H   -0.007579   0.001799  -0.001309   0.013401   0.000490   0.003967
    12  H   -0.015599   0.001168   0.001308  -0.004429   0.000236   0.053310
    13  O    0.000761  -0.000852   0.000329  -0.002281  -0.001587   0.006651
    14  H    0.004355  -0.001162  -0.000966   0.004427  -0.004897  -0.023266
    15  H   -0.001010   0.000434  -0.000195   0.000384  -0.001959  -0.001621
    16  O   -0.027328  -0.013636   0.002429   0.010045  -0.000335   0.004629
    17  H   -0.014881   0.006981   0.002214   0.001855   0.000632  -0.001815
    18  H    0.000082   0.003213  -0.000409   0.000348  -0.000415  -0.008360
    19  C   -0.609347   0.024973  -0.790361  -0.122190   0.054762  -0.123559
    20  H    0.021443   0.305467  -0.151771  -0.011586  -0.003524  -0.001490
    21  H    0.390310  -0.359745   0.204445  -0.119701  -0.011878   0.003293
    22  C   -0.086762  -0.089199  -0.162193   0.065513   0.029528   0.010913
    23  H    0.225257  -0.075500  -0.036314   0.012584   0.004914   0.010071
    24  C   -0.069302  -0.026128   0.080503  -0.019881  -0.005658  -0.002499
    25  H    0.189806  -0.012273   0.031414  -0.009404  -0.002458   0.000682
    26  H   -0.002910   0.015513  -0.004289   0.004136  -0.000241   0.000823
              7          8          9         10         11         12
     1  C    0.059532   0.054418   0.041971  -0.021603  -0.007579  -0.015599
     2  H   -0.013505  -0.040553   0.008590   0.004795   0.001799   0.001168
     3  H    0.015104  -0.016966  -0.006208   0.000741  -0.001309   0.001308
     4  N   -0.112445   0.090180  -0.070900  -0.025057   0.013401  -0.004429
     5  H   -0.019627   0.028651  -0.003107   0.002973   0.000490   0.000236
     6  P    0.026743  -0.278595   0.062365   0.064481   0.003967   0.053310
     7  O    9.407005  -0.164074  -0.076917  -0.085825   0.029932   0.015503
     8  O   -0.164074   9.437972  -0.006019  -0.075136   0.035412   0.037719
     9  S   -0.076917  -0.006019  16.964940  -0.006329   0.000181  -0.001606
    10  O   -0.085825  -0.075136  -0.006329   7.992371   0.258230   0.236000
    11  H    0.029932   0.035412   0.000181   0.258230   0.640578  -0.127280
    12  H    0.015503   0.037719  -0.001606   0.236000  -0.127280   0.632763
    13  O   -0.071508  -0.003847  -0.000004  -0.000716   0.001795   0.001017
    14  H    0.102332   0.003160   0.004087   0.001198  -0.004311   0.001544
    15  H   -0.001780   0.000715   0.008389   0.000086   0.000209  -0.000405
    16  O   -0.004457  -0.060647   0.004095  -0.001572   0.000332   0.002519
    17  H    0.004917   0.112878   0.001111  -0.000772   0.001012  -0.006635
    18  H    0.000280  -0.005909   0.009701  -0.000272  -0.000142  -0.000852
    19  C   -0.021969  -0.016935   0.028488  -0.008902   0.003164  -0.005210
    20  H   -0.002833   0.000237  -0.000992  -0.000379   0.000484  -0.000273
    21  H    0.002548  -0.001485   0.008791  -0.000635  -0.000339  -0.000217
    22  C   -0.000389   0.006050   0.000990  -0.000207  -0.001206   0.001358
    23  H   -0.000023   0.002183   0.000162   0.000070  -0.000106   0.000641
    24  C    0.000183  -0.002516  -0.000340  -0.000314  -0.000110   0.000194
    25  H    0.000005  -0.000066   0.000043   0.000013  -0.000125   0.000187
    26  H    0.000014  -0.000027  -0.000183  -0.000029   0.000032  -0.000085
             13         14         15         16         17         18
     1  C    0.000761   0.004355  -0.001010  -0.027328  -0.014881   0.000082
     2  H   -0.000852  -0.001162   0.000434  -0.013636   0.006981   0.003213
     3  H    0.000329  -0.000966  -0.000195   0.002429   0.002214  -0.000409
     4  N   -0.002281   0.004427   0.000384   0.010045   0.001855   0.000348
     5  H   -0.001587  -0.004897  -0.001959  -0.000335   0.000632  -0.000415
     6  P    0.006651  -0.023266  -0.001621   0.004629  -0.001815  -0.008360
     7  O   -0.071508   0.102332  -0.001780  -0.004457   0.004917   0.000280
     8  O   -0.003847   0.003160   0.000715  -0.060647   0.112878  -0.005909
     9  S   -0.000004   0.004087   0.008389   0.004095   0.001111   0.009701
    10  O   -0.000716   0.001198   0.000086  -0.001572  -0.000772  -0.000272
    11  H    0.001795  -0.004311   0.000209   0.000332   0.001012  -0.000142
    12  H    0.001017   0.001544  -0.000405   0.002519  -0.006635  -0.000852
    13  O    7.803081   0.206266   0.337976  -0.000041  -0.000119   0.000012
    14  H    0.206266   0.585307  -0.110529  -0.000115  -0.000381  -0.000022
    15  H    0.337976  -0.110529   0.727863   0.000033   0.000026  -0.000010
    16  O   -0.000041  -0.000115   0.000033   7.838369   0.163411   0.350441
    17  H   -0.000119  -0.000381   0.000026   0.163411   0.563690  -0.090222
    18  H    0.000012  -0.000022  -0.000010   0.350441  -0.090222   0.699408
    19  C   -0.000014   0.001025  -0.000108   0.021245   0.014076  -0.001399
    20  H    0.000318  -0.000084   0.000228   0.000901  -0.001080  -0.000390
    21  H    0.000123   0.000238  -0.000073   0.002762  -0.000312   0.001501
    22  C    0.000208   0.000483  -0.000147  -0.001788  -0.001475   0.000657
    23  H    0.000021   0.000076  -0.000024   0.002511  -0.002143  -0.000647
    24  C   -0.000010   0.000137   0.000003   0.000323   0.000441  -0.000189
    25  H   -0.000016   0.000097  -0.000019  -0.000091  -0.000304   0.000011
    26  H   -0.000001  -0.000016   0.000004   0.000035   0.000087   0.000010
             19         20         21         22         23         24
     1  C   -0.609347   0.021443   0.390310  -0.086762   0.225257  -0.069302
     2  H    0.024973   0.305467  -0.359745  -0.089199  -0.075500  -0.026128
     3  H   -0.790361  -0.151771   0.204445  -0.162193  -0.036314   0.080503
     4  N   -0.122190  -0.011586  -0.119701   0.065513   0.012584  -0.019881
     5  H    0.054762  -0.003524  -0.011878   0.029528   0.004914  -0.005658
     6  P   -0.123559  -0.001490   0.003293   0.010913   0.010071  -0.002499
     7  O   -0.021969  -0.002833   0.002548  -0.000389  -0.000023   0.000183
     8  O   -0.016935   0.000237  -0.001485   0.006050   0.002183  -0.002516
     9  S    0.028488  -0.000992   0.008791   0.000990   0.000162  -0.000340
    10  O   -0.008902  -0.000379  -0.000635  -0.000207   0.000070  -0.000314
    11  H    0.003164   0.000484  -0.000339  -0.001206  -0.000106  -0.000110
    12  H   -0.005210  -0.000273  -0.000217   0.001358   0.000641   0.000194
    13  O   -0.000014   0.000318   0.000123   0.000208   0.000021  -0.000010
    14  H    0.001025  -0.000084   0.000238   0.000483   0.000076   0.000137
    15  H   -0.000108   0.000228  -0.000073  -0.000147  -0.000024   0.000003
    16  O    0.021245   0.000901   0.002762  -0.001788   0.002511   0.000323
    17  H    0.014076  -0.001080  -0.000312  -0.001475  -0.002143   0.000441
    18  H   -0.001399  -0.000390   0.001501   0.000657  -0.000647  -0.000189
    19  C    7.340702  -0.316155  -0.375422   0.540536  -0.489940  -0.291707
    20  H   -0.316155   2.860012  -0.596278  -0.267174   0.011251  -0.093234
    21  H   -0.375422  -0.596278   2.363449  -0.137216  -0.092981   0.113571
    22  C    0.540536  -0.267174  -0.137216   5.794784  -0.652368  -0.479523
    23  H   -0.489940   0.011251  -0.092981  -0.652368   2.970258  -0.003485
    24  C   -0.291707  -0.093234   0.113571  -0.479523  -0.003485   6.196468
    25  H   -0.332538  -0.226755   0.032715  -0.411138   0.167111   0.316038
    26  H    0.070071   0.086081  -0.013333   0.427855  -0.288988  -0.416925
             25         26
     1  C    0.189806  -0.002910
     2  H   -0.012273   0.015513
     3  H    0.031414  -0.004289
     4  N   -0.009404   0.004136
     5  H   -0.002458  -0.000241
     6  P    0.000682   0.000823
     7  O    0.000005   0.000014
     8  O   -0.000066  -0.000027
     9  S    0.000043  -0.000183
    10  O    0.000013  -0.000029
    11  H   -0.000125   0.000032
    12  H    0.000187  -0.000085
    13  O   -0.000016  -0.000001
    14  H    0.000097  -0.000016
    15  H   -0.000019   0.000004
    16  O   -0.000091   0.000035
    17  H   -0.000304   0.000087
    18  H    0.000011   0.000010
    19  C   -0.332538   0.070071
    20  H   -0.226755   0.086081
    21  H    0.032715  -0.013333
    22  C   -0.411138   0.427855
    23  H    0.167111  -0.288988
    24  C    0.316038  -0.416925
    25  H    2.819139  -0.917849
    26  H   -0.917849   2.664197
 Mulliken atomic charges:
              1
     1  C    0.823611
     2  H   -0.681681
     3  H   -0.532829
     4  N   -0.375639
     5  H   -0.165763
     6  P    1.679215
     7  O   -1.088743
     8  O   -1.136800
     9  S   -0.971299
    10  O   -0.333210
    11  H    0.151487
    12  H    0.177126
    13  O   -0.277563
    14  H    0.231016
    15  H    0.041531
    16  O   -0.294070
    17  H    0.246808
    18  H    0.043574
    19  C    1.406715
    20  H   -0.612424
    21  H   -0.414130
    22  C    1.411909
    23  H   -0.764592
    24  C    0.703960
    25  H   -0.644223
    26  H   -0.623984
 Sum of Mulliken charges=  -2.00000
 Atomic charges with hydrogens summed into heavy atoms:
              1
     1  C   -0.390899
     2  H    0.000000
     3  H    0.000000
     4  N   -0.541402
     5  H    0.000000
     6  P    1.679215
     7  O   -1.088743
     8  O   -1.136800
     9  S   -0.971299
    10  O   -0.004597
    11  H    0.000000
    12  H    0.000000
    13  O   -0.005016
    14  H    0.000000
    15  H    0.000000
    16  O   -0.003689
    17  H    0.000000
    18  H    0.000000
    19  C    0.380161
    20  H    0.000000
    21  H    0.000000
    22  C    0.647317
    23  H    0.000000
    24  C   -0.564247
    25  H    0.000000
    26  H    0.000000
 Sum of Mulliken charges=  -2.00000
 Electronic spatial extent (au):  <R**2>=  4443.6331
 Charge=    -2.0000 electrons
 Dipole moment (field-independent basis, Debye):
    X=   -11.3833    Y=    -2.9263    Z=    -1.3998  Tot=    11.8365
 Quadrupole moment (field-independent basis, Debye-Ang):
   XX=  -159.2967   YY=  -136.0895   ZZ=  -136.2086
   XY=    10.3903   XZ=    -5.9843   YZ=    -4.0562
 Traceless Quadrupole moment (field-independent basis, Debye-Ang):
   XX=   -15.4318   YY=     7.7754   ZZ=     7.6563
   XY=    10.3903   XZ=    -5.9843   YZ=    -4.0562
 Octapole moment (field-independent basis, Debye-Ang**2):
  XXX=   -15.3079  YYY=   -45.1063  ZZZ=    -6.3307  XYY=   -30.7475
  XXY=    76.7660  XXZ=   -18.6024  XZZ=   -51.8376  YZZ=   -13.6309
  YYZ=   -12.4670  XYZ=     9.6211
 Hexadecapole moment (field-independent basis, Debye-Ang**3):
 XXXX= -4894.5671 YYYY= -1841.6300 ZZZZ= -1396.1820 XXXY=    44.3044
 XXXZ=   -88.3164 YYYX=   204.3970 YYYZ=   -15.7020 ZZZX=   -12.9974
 ZZZY=   -53.3797 XXYY= -1147.2366 XXZZ=  -972.8469 YYZZ=  -400.5839
 XXYZ=    49.4991 YYXZ=   -28.3418 ZZXY=   -90.3705
 N-N= 9.716116581590D+02 E-N=-5.123395204374D+03  KE= 1.325789489053D+03
 No NMR shielding tensors so no spin-rotation constants.
 Leave Link  601 at Sun Jul 27 19:53:17 2008, MaxMem=  536870912 cpu:      13.0
 (Enter /usr/local/Chem-Apps/g03_d01/g03/l701.exe)
 Compute integral first derivatives.
 ... and contract with generalized density number  0.
 Leave Link  701 at Sun Jul 27 19:53:18 2008, MaxMem=  536870912 cpu:       8.7
 (Enter /usr/local/Chem-Apps/g03_d01/g03/l702.exe)
 L702 exits ... SP integral derivatives will be done elsewhere.
 Leave Link  702 at Sun Jul 27 19:53:18 2008, MaxMem=  536870912 cpu:       0.1
 (Enter /usr/local/Chem-Apps/g03_d01/g03/l703.exe)
 Compute integral first derivatives, UseDBF=F.
 Integral derivatives from FoFDir, PRISM(SPDF).
 Symmetry not used in FoFDir.
 MinBra= 0 MaxBra= 2 Meth= 1.
 IRaf=       0 NMat=   1 IRICut=       1 DoRegI=T DoRafI=F ISym2E= 0 JSym2E=0.
 Leave Link  703 at Sun Jul 27 19:53:54 2008, MaxMem=  536870912 cpu:     545.4
 (Enter /usr/local/Chem-Apps/g03_d01/g03/l716.exe)
 Dipole        =-4.47852704D+00-1.15130238D+00-5.50727003D-01
 ***** Axes restored to original set *****
 -------------------------------------------------------------------
 Center     Atomic                   Forces (Hartrees/Bohr)
 Number     Number              X              Y              Z
 -------------------------------------------------------------------
    1          6          -0.013810681    0.013907754    0.010887024
    2          1          -0.001627573   -0.006082317   -0.005530201
    3          1           0.000281336   -0.001294409    0.002572286
    4          7           0.010771422    0.019039688    0.011756143
    5          1          -0.014194919   -0.008869437   -0.008276328
    6         15           0.014719053   -0.011052805   -0.029414951
    7          8          -0.004791046   -0.008559864    0.012527935
    8          8           0.006583562    0.000454466    0.015156582
    9         16          -0.001814143    0.002938244   -0.001837906
   10          8          -0.007984002    0.012443982   -0.027475921
   11          1           0.006017790    0.000013986    0.009459835
   12          1          -0.000956855   -0.007803895    0.007574959
   13          8          -0.018906254   -0.016321218   -0.015261089
   14          1           0.013418509    0.010619409    0.008064176
   15          1           0.006111580    0.005590410    0.010723412
   16          8           0.019862607    0.018848155   -0.010050052
   17          1          -0.013442428   -0.012724527    0.004344769
   18          1          -0.007292070   -0.006760219    0.009041102
   19          6           0.019504810    0.029204556   -0.029419862
   20          1          -0.002658633   -0.020035746   -0.002463843
   21          1          -0.001055586    0.002208097    0.020797704
   22          6          -0.014247239   -0.046936023    0.001816199
   23          1           0.003722831    0.016406269    0.001829667
   24          6          -0.008676986    0.029467024    0.015935243
   25          1          -0.003432738   -0.014601996   -0.002664904
   26          1           0.013897654   -0.000099583   -0.010091976
 -------------------------------------------------------------------
 Cartesian Forces:  Max     0.046936023 RMS     0.013716094
 Leave Link  716 at Sun Jul 27 19:53:54 2008, MaxMem=  536870912 cpu:       0.0
 (Enter /usr/local/Chem-Apps/g03_d01/g03/l103.exe)

 GradGradGradGradGradGradGradGradGradGradGradGradGradGradGradGradGradGrad
 Berny optimization.
 Internal  Forces:  Max     0.020647426 RMS     0.006907007
 Search for a local minimum.
 Step number   1 out of a maximum of 131
 All quantities printed in internal units (Hartrees-Bohrs-Radians)
 Swaping is turned off.
 Second derivative matrix not updated -- first step.
     Eigenvalues ---    0.00230   0.00230   0.00230   0.00237   0.00237
     Eigenvalues ---    0.00608   0.00836   0.00836   0.01215   0.01312
     Eigenvalues ---    0.01320   0.01655   0.02599   0.02681   0.02681
     Eigenvalues ---    0.02984   0.03527   0.04134   0.04356   0.05410
     Eigenvalues ---    0.05521   0.06118   0.06912   0.06949   0.07579
     Eigenvalues ---    0.08175   0.08669   0.09193   0.10464   0.11163
     Eigenvalues ---    0.12376   0.12684   0.12761   0.15073   0.15917
     Eigenvalues ---    0.16000   0.16000   0.16000   0.16000   0.16000
     Eigenvalues ---    0.16549   0.17534   0.20072   0.21903   0.21914
     Eigenvalues ---    0.21983   0.22000   0.22454   0.23000   0.25000
     Eigenvalues ---    0.25000   0.28519   0.28519   0.28549   0.32262
     Eigenvalues ---    0.32468   0.36380   0.37230   0.37230   0.37230
     Eigenvalues ---    0.37230   0.37230   0.47997   0.49653   0.50072
     Eigenvalues ---    0.51659   0.51784   0.53930   0.54682   0.54888
     Eigenvalues ---    0.57388   0.574451000.000001000.000001000.00000
     Eigenvalues --- 1000.000001000.000001000.000001000.000001000.00000
     Eigenvalues --- 1000.000001000.000001000.000001000.000001000.00000
     Eigenvalues --- 1000.000001000.000001000.000001000.000001000.00000
     Eigenvalues --- 1000.000001000.000001000.000001000.000001000.00000
     Eigenvalues --- 1000.000001000.000001000.000001000.000001000.00000
     Eigenvalues --- 1000.000001000.000001000.000001000.000001000.00000
     Eigenvalues --- 1000.000001000.000001000.000001000.000001000.00000
     Eigenvalues --- 1000.000001000.000001000.000001000.000001000.00000
     Eigenvalues --- 1000.000001000.000001000.000001000.000001000.00000
     Eigenvalues --- 1000.00000
 Quadratic step=1.055D+00 exceeds max=3.000D-01 adjusted using Lamda=-3.921D-02.
 Angle between NR and scaled steps=  56.67 degrees.
 Angle between quadratic step and forces=  30.19 degrees.
 Linear search not attempted -- option 19 set.
 Iteration  1 RMS(Cart)=  0.05961855 RMS(Int)=  0.00158356
 Iteration  2 RMS(Cart)=  0.00214223 RMS(Int)=  0.00020436
 Iteration  3 RMS(Cart)=  0.00000353 RMS(Int)=  0.00020435
 Iteration  4 RMS(Cart)=  0.00000000 RMS(Int)=  0.00020435
 Variable       Old X    -DE/DX   Delta X   Delta X   Delta X     New X
                                 (Linear)    (Quad)   (Total)
    R1        2.09996  -0.00785   0.00000  -0.02157  -0.02157   2.07839
    R2        2.10366  -0.00264   0.00000  -0.00729  -0.00729   2.09637
    R3        2.76791  -0.00773   0.00000  -0.01918  -0.01918   2.74873
    R4        2.91018   0.00625   0.00000   0.01928   0.01928   2.92946
    R5        1.88642   0.01545   0.00000   0.02975   0.02975   1.91617
    R6        3.49861  -0.01759   0.00000  -0.06669  -0.06669   3.43192
    R7        2.98053  -0.00622   0.00000  -0.01170  -0.01166   2.96887
    R8        2.98107  -0.00732   0.00000  -0.01368  -0.01364   2.96743
    R9        3.89254  -0.00154   0.00000  -0.00473  -0.00473   3.88781
   R10        3.41300   0.00752   0.00000   0.07893   0.07892   3.49191
   R11        3.27944  -0.00029   0.00000  -0.00267  -0.00267   3.27677
   R12        3.41396   0.00775   0.00000   0.08012   0.08010   3.49406
   R13        3.27414  -0.00030   0.00000  -0.00273  -0.00273   3.27141
   R14        1.84060   0.01116   0.00000   0.02122   0.02118   1.86178
   R15        1.84038   0.01087   0.00000   0.02056   0.02052   1.86090
   R16        1.84807   0.01432   0.00000   0.02570   0.02570   1.87377
   R17        1.79769   0.01120   0.00000   0.01826   0.01826   1.81596
   R18        1.84927   0.01455   0.00000   0.02617   0.02617   1.87544
   R19        1.79721   0.01129   0.00000   0.01840   0.01840   1.81562
   R20        2.02201   0.02022   0.00000   0.04914   0.04914   2.07115
   R21        2.02201   0.02065   0.00000   0.05017   0.05017   2.07218
   R22        2.91018  -0.01414   0.00000  -0.04358  -0.04358   2.86660
   R23        2.02201   0.01667   0.00000   0.04051   0.04051   2.06252
   R24        2.56096  -0.01117   0.00000  -0.01930  -0.01930   2.54165
   R25        2.02201   0.01496   0.00000   0.03636   0.03636   2.05837
   R26        2.02201   0.01657   0.00000   0.04027   0.04027   2.06228
    A1        1.85581  -0.00064   0.00000  -0.00565  -0.00560   1.85021
    A2        1.87781  -0.00048   0.00000   0.00052   0.00046   1.87826
    A3        1.88834   0.00210   0.00000   0.01567   0.01568   1.90402
    A4        1.97833   0.00078   0.00000   0.00160   0.00157   1.97990
    A5        1.91530  -0.00144   0.00000  -0.01110  -0.01108   1.90422
    A6        1.94369  -0.00022   0.00000  -0.00008  -0.00012   1.94357
    A7        1.89859   0.00957   0.00000   0.04775   0.04706   1.94565
    A8        2.10960  -0.00496   0.00000  -0.02109  -0.02120   2.08840
    A9        1.95935  -0.00705   0.00000  -0.05148  -0.05114   1.90820
   A10        1.76803   0.00130   0.00000   0.01939   0.01892   1.78695
   A11        1.82252  -0.00059   0.00000   0.00743   0.00669   1.82920
   A12        1.83489   0.00259   0.00000   0.00822   0.00847   1.84336
   A13        1.88850   0.00916   0.00000   0.04158   0.04131   1.92982
   A14        2.05720  -0.00538   0.00000  -0.02992  -0.02987   2.02733
   A15        2.05278  -0.00595   0.00000  -0.03567  -0.03557   2.01721
   A16        1.90665  -0.00462   0.00000  -0.02662  -0.02654   1.88011
   A17        2.41290  -0.00149   0.00000  -0.00725  -0.00731   2.40559
   A18        1.91532   0.00591   0.00000   0.03179   0.03174   1.94706
   A19        1.90593  -0.00445   0.00000  -0.02634  -0.02628   1.87964
   A20        2.40153  -0.00082   0.00000  -0.00181  -0.00184   2.39969
   A21        1.97221   0.00529   0.00000   0.02863   0.02858   2.00079
   A22        1.79065  -0.01380   0.00000  -0.05218  -0.05229   1.73836
   A23        2.53652   0.00672   0.00000   0.03123   0.03117   2.56770
   A24        2.53697   0.00685   0.00000   0.03108   0.03102   2.56799
   A25        1.84073  -0.01368   0.00000  -0.06867  -0.06867   1.77205
   A26        2.85025   0.00431   0.00000   0.01491   0.01491   2.86515
   A27        1.84239  -0.01313   0.00000  -0.06589  -0.06589   1.77650
   A28        2.83663   0.00474   0.00000   0.01638   0.01638   2.85301
   A29        1.91063  -0.00008   0.00000   0.00806   0.00790   1.91854
   A30        1.91063  -0.00501   0.00000  -0.02623  -0.02627   1.88437
   A31        1.91063   0.00934   0.00000   0.03980   0.03971   1.95034
   A32        1.91063   0.00046   0.00000  -0.01050  -0.01058   1.90005
   A33        1.91063  -0.00380   0.00000  -0.01208  -0.01249   1.89815
   A34        1.91063  -0.00091   0.00000   0.00095   0.00120   1.91183
   A35        2.09241  -0.01146   0.00000  -0.04742  -0.04746   2.04495
   A36        2.09836   0.01739   0.00000   0.06709   0.06705   2.16541
   A37        2.09241  -0.00593   0.00000  -0.01968  -0.01972   2.07269
   A38        2.09836   0.00088   0.00000   0.00443   0.00441   2.10276
   A39        2.09241   0.00400   0.00000   0.02008   0.02005   2.11247
[...]
 Alpha  occ. eigenvalues --   -0.38414  -0.37991  -0.37457  -0.36977  -0.35561
 Alpha  occ. eigenvalues --   -0.33807  -0.33488  -0.32515  -0.29048  -0.28869
 Alpha  occ. eigenvalues --   -0.28692  -0.27369  -0.26572  -0.25898  -0.25468
 Alpha  occ. eigenvalues --   -0.24454  -0.22031  -0.19631  -0.19174
 Alpha virt. eigenvalues --    0.00081   0.00149   0.01327   0.01626   0.02171
 Alpha virt. eigenvalues --    0.03327   0.03508   0.04425   0.04878   0.05661
 Alpha virt. eigenvalues --    0.06462   0.06591   0.07201   0.07892   0.08527
 Alpha virt. eigenvalues --    0.08834   0.09739   0.10449   0.10788   0.11472
 Alpha virt. eigenvalues --    0.11900   0.12303   0.13056   0.13135   0.13475
 Alpha virt. eigenvalues --    0.13815   0.14417   0.14870   0.15417   0.15876
 Alpha virt. eigenvalues --    0.16475   0.16687   0.17310   0.17686   0.17799
 Alpha virt. eigenvalues --    0.18395   0.18890   0.18954   0.19233   0.20542
 Alpha virt. eigenvalues --    0.20860   0.20994   0.21629   0.22049   0.22532
 Alpha virt. eigenvalues --    0.22727   0.23386   0.24333   0.24705   0.25183
 Alpha virt. eigenvalues --    0.25304   0.25357   0.26750   0.27428   0.27858
 Alpha virt. eigenvalues --    0.28580   0.29063   0.29361   0.29844   0.31173
 Alpha virt. eigenvalues --    0.31942   0.32426   0.33744   0.34269   0.34969
 Alpha virt. eigenvalues --    0.35456   0.36114   0.36424   0.37162   0.38069
 Alpha virt. eigenvalues --    0.38667   0.39575   0.40005   0.40400   0.40834
 Alpha virt. eigenvalues --    0.42512   0.43014   0.43753   0.44197   0.45168
 Alpha virt. eigenvalues --    0.45601   0.46277   0.46934   0.47899   0.48792
 Alpha virt. eigenvalues --    0.49401   0.51059   0.51427   0.52942   0.53632
 Alpha virt. eigenvalues --    0.54247   0.55317   0.55590   0.56614   0.56927
 Alpha virt. eigenvalues --    0.58327   0.59047   0.59839   0.60622   0.61621
 Alpha virt. eigenvalues --    0.63279   0.63762   0.65135   0.66122   0.66417
 Alpha virt. eigenvalues --    0.67344   0.69319   0.70376   0.71512   0.72026
 Alpha virt. eigenvalues --    0.73228   0.73804   0.74392   0.75318   0.75648
 Alpha virt. eigenvalues --    0.76687   0.77320   0.78232   0.78826   0.79148
 Alpha virt. eigenvalues --    0.79899   0.80297   0.80409   0.81247   0.82385
 Alpha virt. eigenvalues --    0.83555   0.84191   0.84997   0.86156   0.87133
 Alpha virt. eigenvalues --    0.88512   0.89051   0.89415   0.90040   0.91024
 Alpha virt. eigenvalues --    0.91380   0.91681   0.92335   0.93756   0.94387
 Alpha virt. eigenvalues --    0.95037   0.96212   0.96366   0.97719   0.98051
 Alpha virt. eigenvalues --    0.99948   1.01031   1.02375   1.03014   1.03817
 Alpha virt. eigenvalues --    1.04972   1.05750   1.06971   1.08495   1.09435
 Alpha virt. eigenvalues --    1.09881   1.10001   1.11493   1.11947   1.12579
 Alpha virt. eigenvalues --    1.13372   1.14375   1.14823   1.15543   1.16217
 Alpha virt. eigenvalues --    1.17049   1.17209   1.18586   1.19158   1.20247
 Alpha virt. eigenvalues --    1.20803   1.21873   1.22499   1.23966   1.24499
 Alpha virt. eigenvalues --    1.25472   1.26712   1.26893   1.27512   1.28358
 Alpha virt. eigenvalues --    1.29993   1.31423   1.31541   1.33099   1.35041
 Alpha virt. eigenvalues --    1.36774   1.36972   1.38314   1.40220   1.41624
 Alpha virt. eigenvalues --    1.43005   1.43650   1.45337   1.48708   1.52122
 Alpha virt. eigenvalues --    1.53725   1.54830   1.55289   1.56791   1.58173
 Alpha virt. eigenvalues --    1.59887   1.60999   1.61718   1.63238   1.64111
 Alpha virt. eigenvalues --    1.65275   1.65850   1.67311   1.69559   1.71326
 Alpha virt. eigenvalues --    1.71851   1.73411   1.74754   1.76413   1.77305
 Alpha virt. eigenvalues --    1.78106   1.79066   1.79200   1.79625   1.80130
 Alpha virt. eigenvalues --    1.80847   1.81636   1.83687   1.84206   1.84968
 Alpha virt. eigenvalues --    1.85889   1.86209   1.87655   1.89451   1.89920
 Alpha virt. eigenvalues --    1.91673   1.93413   1.94135   1.94518   1.95620
 Alpha virt. eigenvalues --    1.97201   1.97597   1.98102   1.99827   2.00546
 Alpha virt. eigenvalues --    2.01633   2.04161   2.05626   2.07030   2.08856
 Alpha virt. eigenvalues --    2.12438   2.14398   2.18918   2.20558   2.20969
 Alpha virt. eigenvalues --    2.26020   2.26675   2.27573   2.28565   2.30533
 Alpha virt. eigenvalues --    2.33209   2.34667   2.34985   2.36174   2.36387
 Alpha virt. eigenvalues --    2.38492   2.39676   2.41813   2.42317   2.42917
 Alpha virt. eigenvalues --    2.43501   2.47454   2.48686   2.51070   2.52570
 Alpha virt. eigenvalues --    2.53506   2.55045   2.56571   2.58027   2.59897
 Alpha virt. eigenvalues --    2.61186   2.62816   2.63972   2.67632   2.68251
 Alpha virt. eigenvalues --    2.71234   2.72747   2.77810   2.78176   2.81625
 Alpha virt. eigenvalues --    2.86813   2.93892   3.00071   3.12906   3.18527
 Alpha virt. eigenvalues --    3.20045   3.21763   3.22103   3.25002   3.27477
 Alpha virt. eigenvalues --    3.28644   3.29572   3.31525   3.34017   3.37098
 Alpha virt. eigenvalues --    3.38866   3.46136   3.49716   3.50369   3.53003
 Alpha virt. eigenvalues --    3.54006   3.55384   3.57488   3.57543   3.66566
 Alpha virt. eigenvalues --    3.68402   3.71339   3.80309   3.81852   3.83981
 Alpha virt. eigenvalues --    3.85430   3.88322   3.98349   4.93790   4.98708
 Alpha virt. eigenvalues --    5.04491   5.16458   5.23063   5.36277   5.36786
 Alpha virt. eigenvalues --    5.40185   5.44047   5.49228   5.51104   5.51993
 Alpha virt. eigenvalues --    5.53380   5.55689   5.55805   5.58835   5.61314
 Alpha virt. eigenvalues --    5.63174   5.74309   6.88540   6.89458   6.90343
 Alpha virt. eigenvalues --    6.95404   6.95895   6.97659   7.03231   8.82531
 Alpha virt. eigenvalues --    9.00462   9.13096  10.18353  20.77485  20.80049
 Alpha virt. eigenvalues --   20.90521  20.99424  21.02391  35.13789  35.29033
 Alpha virt. eigenvalues --   35.41026  36.66276  36.80359  36.92055  36.93835
 Alpha virt. eigenvalues --   36.99225  37.02398  37.03262  37.03947  37.04662
 Alpha virt. eigenvalues --   37.05824  37.06798  37.08790  37.09945  37.22479
 Alpha virt. eigenvalues --   59.14679
          Condensed to atoms (all electrons):
              1          2          3          4          5          6
     1  C    5.550928   0.428543   0.416590   0.075679  -0.019755  -0.312081
     2  H    0.428543   0.515667  -0.016662  -0.045624   0.003274  -0.001686
     3  H    0.416590  -0.016662   0.533863  -0.017472  -0.007753  -0.008821
     4  N    0.075679  -0.045624  -0.017472   7.103443   0.354829   0.305717
     5  H   -0.019755   0.003274  -0.007753   0.354829   0.453737  -0.022428
     6  P   -0.312081  -0.001686  -0.008821   0.305717  -0.022428  13.345072
     7  O    0.061785   0.002625  -0.000201  -0.121452   0.003966  -0.004888
     8  O   -0.006912  -0.002221   0.009006   0.013042  -0.004284   0.069750
     9  S    0.014446   0.006123   0.000894   0.006761   0.002159   0.318577
    10  O    0.000389  -0.000008   0.000127   0.003087  -0.000403  -0.014095
    11  H   -0.002495   0.000000   0.000001  -0.002165  -0.000009   0.014616
    12  H   -0.003458  -0.000001   0.000009  -0.000865  -0.000015   0.013596
    13  O   -0.001603   0.000036   0.000003   0.001329   0.000002  -0.010900
    14  H   -0.001108   0.000000   0.000000  -0.002649  -0.000003   0.011035
    15  H   -0.001061   0.000000   0.000000  -0.002157   0.000001   0.014232
    16  O   -0.001036  -0.000543   0.000748  -0.004952   0.000002   0.000221
    17  H   -0.002980  -0.000039  -0.000043   0.001217   0.000002   0.011628
    18  H   -0.002739  -0.000075   0.000008   0.000847  -0.000001   0.012873
    19  C    0.116155  -0.052677  -0.069911  -0.181618   0.004244   0.042925
    20  H   -0.006187   0.003050  -0.003715  -0.010538   0.001119   0.000050
    21  H    0.046282  -0.004165   0.003014  -0.027483   0.000109  -0.000532
    22  C   -0.090073  -0.007461  -0.000417   0.062276  -0.001245  -0.005711
    23  H   -0.014511   0.000843  -0.000111  -0.002246   0.000000  -0.000582
    24  C    0.075846   0.001818   0.005094  -0.015935  -0.000012   0.000013
    25  H   -0.001397   0.000002   0.000019  -0.000329   0.000000  -0.000067
    26  H    0.000921  -0.000002   0.000003   0.000314   0.000000   0.000045
              7          8          9         10         11         12
     1  C    0.061785  -0.006912   0.014446   0.000389  -0.002495  -0.003458
     2  H    0.002625  -0.002221   0.006123  -0.000008   0.000000  -0.000001
     3  H   -0.000201   0.009006   0.000894   0.000127   0.000001   0.000009
     4  N   -0.121452   0.013042   0.006761   0.003087  -0.002165  -0.000865
     5  H    0.003966  -0.004284   0.002159  -0.000403  -0.000009  -0.000015
     6  P   -0.004888   0.069750   0.318577  -0.014095   0.014616   0.013596
     7  O    9.330425  -0.090824  -0.006538  -0.048289   0.023227   0.000606
     8  O   -0.090824   9.216954  -0.028561  -0.046488   0.000294   0.024802
     9  S   -0.006538  -0.028561  16.544480   0.000302  -0.000306  -0.000190
    10  O   -0.048289  -0.046488   0.000302   8.172324   0.286466   0.285732
    11  H    0.023227   0.000294  -0.000306   0.286466   0.386062  -0.014693
    12  H    0.000606   0.024802  -0.000190   0.285732  -0.014693   0.384439
    13  O   -0.061537  -0.000951  -0.030882  -0.000430   0.000248  -0.000007
    14  H    0.036698  -0.000099  -0.005077   0.000185   0.000056   0.000001
    15  H    0.004592  -0.000460   0.019368  -0.000002   0.000001   0.000000
    16  O   -0.000671  -0.064581  -0.031874  -0.000420  -0.000004   0.000265
    17  H   -0.000242   0.034998  -0.005903   0.000164   0.000002   0.000071
    18  H   -0.000489   0.003159   0.021590  -0.000006   0.000000   0.000002
    19  C    0.001214  -0.033031   0.011693  -0.000393  -0.000021   0.000157
    20  H    0.000111  -0.000101  -0.000435   0.000002   0.000000   0.000000
    21  H   -0.000199   0.000098   0.001379   0.000000   0.000000   0.000000
    22  C    0.000910   0.001618  -0.002168   0.000058  -0.000010  -0.000031
    23  H    0.000001  -0.000046  -0.000038   0.000000   0.000000   0.000000
    24  C    0.000315  -0.000234  -0.001342  -0.000005   0.000000   0.000000
    25  H    0.000000   0.000000   0.000002   0.000000   0.000000   0.000000
    26  H    0.000000   0.000001   0.000004   0.000000   0.000000   0.000000
             13         14         15         16         17         18
     1  C   -0.001603  -0.001108  -0.001061  -0.001036  -0.002980  -0.002739
     2  H    0.000036   0.000000   0.000000  -0.000543  -0.000039  -0.000075
     3  H    0.000003   0.000000   0.000000   0.000748  -0.000043   0.000008
     4  N    0.001329  -0.002649  -0.002157  -0.004952   0.001217   0.000847
     5  H    0.000002  -0.000003   0.000001   0.000002   0.000002  -0.000001
     6  P   -0.010900   0.011035   0.014232   0.000221   0.011628   0.012873
     7  O   -0.061537   0.036698   0.004592  -0.000671  -0.000242  -0.000489
     8  O   -0.000951  -0.000099  -0.000460  -0.064581   0.034998   0.003159
     9  S   -0.030882  -0.005077   0.019368  -0.031874  -0.005903   0.021590
    10  O   -0.000430   0.000185  -0.000002  -0.000420   0.000164  -0.000006
    11  H    0.000248   0.000056   0.000001  -0.000004   0.000002   0.000000
    12  H   -0.000007   0.000001   0.000000   0.000265   0.000071   0.000002
    13  O    8.178058   0.282822   0.286877  -0.000089  -0.000001   0.000005
    14  H    0.282822   0.339501  -0.016240  -0.000001   0.000000   0.000000
    15  H    0.286877  -0.016240   0.424928   0.000007   0.000000   0.000000
    16  O   -0.000089  -0.000001   0.000007   8.189241   0.282027   0.285910
    17  H   -0.000001   0.000000   0.000000   0.282027   0.340210  -0.016095
    18  H    0.000005   0.000000   0.000000   0.285910  -0.016095   0.426769
    19  C    0.001253   0.000175   0.000120  -0.006018   0.000489   0.000962
    20  H   -0.000002   0.000000   0.000000   0.000003   0.000000   0.000000
    21  H    0.000004   0.000000   0.000000   0.000010   0.000000   0.000000
    22  C   -0.000138  -0.000012   0.000027   0.002738  -0.000143  -0.000367
    23  H    0.000000   0.000000   0.000000  -0.000003   0.000000   0.000000
    24  C    0.000008   0.000000   0.000000  -0.000515  -0.000003  -0.000006
    25  H    0.000000   0.000000   0.000000   0.000000   0.000000   0.000000
    26  H    0.000000   0.000000   0.000000   0.000000   0.000000   0.000000
             19         20         21         22         23         24
     1  C    0.116155  -0.006187   0.046282  -0.090073  -0.014511   0.075846
     2  H   -0.052677   0.003050  -0.004165  -0.007461   0.000843   0.001818
     3  H   -0.069911  -0.003715   0.003014  -0.000417  -0.000111   0.005094
     4  N   -0.181618  -0.010538  -0.027483   0.062276  -0.002246  -0.015935
     5  H    0.004244   0.001119   0.000109  -0.001245   0.000000  -0.000012
     6  P    0.042925   0.000050  -0.000532  -0.005711  -0.000582   0.000013
     7  O    0.001214   0.000111  -0.000199   0.000910   0.000001   0.000315
     8  O   -0.033031  -0.000101   0.000098   0.001618  -0.000046  -0.000234
     9  S    0.011693  -0.000435   0.001379  -0.002168  -0.000038  -0.001342
    10  O   -0.000393   0.000002   0.000000   0.000058   0.000000  -0.000005
    11  H   -0.000021   0.000000   0.000000  -0.000010   0.000000   0.000000
    12  H    0.000157   0.000000   0.000000  -0.000031   0.000000   0.000000
    13  O    0.001253  -0.000002   0.000004  -0.000138   0.000000   0.000008
    14  H    0.000175   0.000000   0.000000  -0.000012   0.000000   0.000000
    15  H    0.000120   0.000000   0.000000   0.000027   0.000000   0.000000
    16  O   -0.006018   0.000003   0.000010   0.002738  -0.000003  -0.000515
    17  H    0.000489   0.000000   0.000000  -0.000143   0.000000  -0.000003
    18  H    0.000962   0.000000   0.000000  -0.000367   0.000000  -0.000006
    19  C    5.426181   0.396814   0.382228   0.344658  -0.012743  -0.142311
    20  H    0.396814   0.521650  -0.014959  -0.031817   0.002295  -0.008675
    21  H    0.382228  -0.014959   0.500404  -0.052375  -0.001526   0.007745
    22  C    0.344658  -0.031817  -0.052375   4.888049   0.404798   0.295708
    23  H   -0.012743   0.002295  -0.001526   0.404798   0.502076  -0.022951
    24  C   -0.142311  -0.008675   0.007745   0.295708  -0.022951   5.549675
    25  H    0.003338   0.003698   0.000014   0.002896   0.002327   0.372925
    26  H   -0.003932   0.000020  -0.000051   0.010318  -0.003871   0.385361
             25         26
     1  C   -0.001397   0.000921
     2  H    0.000002  -0.000002
     3  H    0.000019   0.000003
     4  N   -0.000329   0.000314
     5  H    0.000000   0.000000
     6  P   -0.000067   0.000045
     7  O    0.000000   0.000000
     8  O    0.000000   0.000001
     9  S    0.000002   0.000004
    10  O    0.000000   0.000000
    11  H    0.000000   0.000000
    12  H    0.000000   0.000000
    13  O    0.000000   0.000000
    14  H    0.000000   0.000000
    15  H    0.000000   0.000000
    16  O    0.000000   0.000000
    17  H    0.000000   0.000000
    18  H    0.000000   0.000000
    19  C    0.003338  -0.003932
    20  H    0.003698   0.000020
    21  H    0.000014  -0.000051
    22  C    0.002896   0.010318
    23  H    0.002327  -0.003871
    24  C    0.372925   0.385361
    25  H    0.512887  -0.024651
    26  H   -0.024651   0.500488
 Mulliken atomic charges:
              1
     1  C   -0.320168
     2  H    0.169184
     3  H    0.155727
     4  N   -0.493054
     5  H    0.232466
     6  P    1.221440
     7  O   -1.131144
     8  O   -1.094930
     9  S   -0.834462
    10  O   -0.638297
    11  H    0.308731
    12  H    0.309580
    13  O   -0.644105
    14  H    0.354715
    15  H    0.269767
    16  O   -0.650464
    17  H    0.354641
    18  H    0.267653
    19  C   -0.229949
    20  H    0.147615
    21  H    0.160002
    22  C    0.177914
    23  H    0.146288
    24  C   -0.502519
    25  H    0.128337
    26  H    0.135033
 Sum of Mulliken charges=  -2.00000
 Atomic charges with hydrogens summed into heavy atoms:
              1
     1  C    0.004744
     2  H    0.000000
     3  H    0.000000
     4  N   -0.260588
     5  H    0.000000
     6  P    1.221440
     7  O   -1.131144
     8  O   -1.094930
     9  S   -0.834462
    10  O   -0.019987
    11  H    0.000000
    12  H    0.000000
    13  O   -0.019623
    14  H    0.000000
    15  H    0.000000
    16  O   -0.028171
    17  H    0.000000
    18  H    0.000000
    19  C    0.077668
    20  H    0.000000
    21  H    0.000000
    22  C    0.324201
    23  H    0.000000
    24  C   -0.239149
    25  H    0.000000
    26  H    0.000000
 Sum of Mulliken charges=  -2.00000
 Electronic spatial extent (au):  <R**2>=  4264.5021
 Charge=    -2.0000 electrons
 Dipole moment (field-independent basis, Debye):
    X=   -15.4330    Y=    -2.2131    Z=     1.7710  Tot=    15.6911
 Quadrupole moment (field-independent basis, Debye-Ang):
   XX=  -142.9635   YY=  -146.4459   ZZ=  -127.0092
   XY=     7.6201   XZ=    -8.6057   YZ=    -1.2774
 Traceless Quadrupole moment (field-independent basis, Debye-Ang):
   XX=    -4.1573   YY=    -7.6397   ZZ=    11.7970
   XY=     7.6201   XZ=    -8.6057   YZ=    -1.2774
 Octapole moment (field-independent basis, Debye-Ang**2):
  XXX=   -77.5170  YYY=   -11.4266  ZZZ=   -11.1534  XYY=   -63.0674
  XXY=    49.6626  XXZ=   -17.4964  XZZ=   -58.4191  YZZ=   -44.7280
  YYZ=    35.5074  XYZ=   -20.0660
 Hexadecapole moment (field-independent basis, Debye-Ang**3):
 XXXX= -4067.9407 YYYY= -1653.0593 ZZZZ= -1337.4279 XXXY=    68.1831
 XXXZ=   -30.9826 YYYX=   128.3883 YYYZ=   117.9671 ZZZX=  -103.8504
 ZZZY=   -79.4318 XXYY= -1074.9248 XXZZ=  -893.7446 YYZZ=  -494.8041
 XXYZ=   -96.2581 YYXZ=     1.0446 ZZXY=   -81.2062
 N-N= 9.877642879578D+02 E-N=-5.157738321410D+03  KE= 1.326002513333D+03
 Calculating spin-rotation constants.
 Leave Link  601 at Sun Jul 27 21:52:53 2008, MaxMem=  536870912 cpu:     157.0
 (Enter /usr/local/Chem-Apps/g03_d01/g03/l9999.exe)
 1\1\ SGI ALTIX 4700 1.6GHZ/9MB-MAGELLAN\SP\RB3LYP\Gen\C4H14N1O5P1S1(2-
 )\IK1\27-Jul-2008\0\\#p nmr=giao b3lyp/Gen scf=tight integral=(grid=ul
 trafine) scrf=(pcm,solvent=water,read) guess=read geom=checkpoint\\Mol
 ecule 4, NMR and scalar couplings.\\-2,1\C,0,2.0359690083,-0.641311800
 6,-0.5048198652\H,0,2.1129153534,-0.1243115752,0.4628252735\H,0,2.4274
 193189,0.0545850015,-1.2719337518\N,0,0.636692308,-0.988979047,-0.6948
 80903\H,0,0.4423466636,-1.236446396,-1.6649881838\P,0,-0.5644045023,0.
 2562343779,-0.2699769194\O,0,-1.8862850964,-0.3556805085,-0.8467428032
 \O,0,-0.1175758696,1.5887101554,-0.9754462209\S,0,-0.4772857702,0.3835
 42245,1.8099019329\O,0,-1.8780767374,1.26265535,-3.1971864269\H,0,-2.1
 681113132,0.5767878599,-2.5579159626\H,0,-1.1744210035,1.650412495,-2.
 6326857931\O,0,-3.2286345439,-1.7133254595,1.1411886235\H,0,-2.8535683
 322,-1.2985072565,0.3214904742\H,0,-2.6152374259,-1.3219950485,1.78593
 67147\O,0,1.1203345051,3.2893664276,0.7871896555\H,0,0.7192103975,2.78
 65520471,0.0304184268\H,0,0.815331657,2.7097686106,1.5067546863\C,0,2.
 9185421934,-1.9098408346,-0.4662111354\H,0,2.831898838,-2.4630327124,-
 1.4162670823\H,0,2.5061819156,-2.5552791255,0.3267191231\C,0,4.3587868
 248,-1.6102094123,-0.1775996818\H,0,4.5432357364,-1.0403542692,0.74110
 25262\C,0,5.4131605895,-1.9451483576,-0.935624766\H,0,5.2891248579,-2.
 4983244952,-1.87062256\H,0,6.4325877273,-1.6693695815,-0.6563886313\\V
 ersion=IA64L-G03RevD.01\State=1-A\HF=-1331.884629\RMSD=7.761e-09\Therm
 al=0.\Dipole=5.4781624,-2.7385704,-0.77481\PG=C01 [X(C4H14N1O5P1S1)]\\
 @


 OF ALL THE WONDERS OF THE UNIVERSE, THE GREATEST IS MAN.

                                    -- ARISTOTLE
 Job cpu time:  0 days  0 hours 11 minutes  9.2 seconds.
 File lengths (MBytes):  RWF=    283 Int=      0 D2E=      0 Chk=     23 Scr=      1
 Normal termination of Gaussian 03 at Sun Jul 27 21:52:54 2008.
