 Entering Gaussian System, Link 0=/usr/local/Chem-Apps/g03_d01/g03/g03
 Initial command:
 /usr/local/Chem-Apps/g03_d01/g03/l1.exe /scratch/LSF_69157/Gau-7223.inp -scrdir=/scratch/LSF_69157/
 Entering Link 1 = /usr/local/Chem-Apps/g03_d01/g03/l1.exe PID=      7224.
  
 Copyright (c) 1988,1990,1992,1993,1995,1998,2003,2004, Gaussian, Inc.
                  All Rights Reserved.
  
 This is the Gaussian(R) 03 program.  It is based on the
 the Gaussian(R) 98 system (copyright 1998, Gaussian, Inc.),
 the Gaussian(R) 94 system (copyright 1995, Gaussian, Inc.),
 the Gaussian 92(TM) system (copyright 1992, Gaussian, Inc.),
 the Gaussian 90(TM) system (copyright 1990, Gaussian, Inc.),
 the Gaussian 88(TM) system (copyright 1988, Gaussian, Inc.),
 the Gaussian 86(TM) system (copyright 1986, Carnegie Mellon
 University), and the Gaussian 82(TM) system (copyright 1983,
 Carnegie Mellon University). Gaussian is a federally registered
 trademark of Gaussian, Inc.
  
 This software contains proprietary and confidential information,
 including trade secrets, belonging to Gaussian, Inc.
  
 This software is provided under written license and may be
 used, copied, transmitted, or stored only in accord with that
 written license.
  
 The following legend is applicable only to US Government
 contracts under FAR:
  
                    RESTRICTED RIGHTS LEGEND
  
 Use, reproduction and disclosure by the US Government is
 subject to restrictions as set forth in subparagraphs (a)
 and (c) of the Commercial Computer Software - Restricted
 Rights clause in FAR 52.227-19.
  
 Gaussian, Inc.
 340 Quinnipiac St., Bldg. 40, Wallingford CT 06492
  
  
 ---------------------------------------------------------------
 Warning -- This program may not be used in any manner that
 competes with the business of Gaussian, Inc. or will provide
 assistance to any competitor of Gaussian, Inc.  The licensee
 of this program is prohibited from giving any competitor of
 Gaussian, Inc. access to this program.  By using this program,
 the user acknowledges that Gaussian, Inc. is engaged in the
 business of creating and licensing software in the field of
 computational chemistry and represents and warrants to the
 licensee that it is not a competitor of Gaussian, Inc. and that
 it will not use this program in any manner prohibited above.
 ---------------------------------------------------------------
  

 Cite this work as:
 Gaussian 03, Revision D.01,
 M. J. Frisch, G. W. Trucks, H. B. Schlegel, G. E. Scuseria, 
 M. A. Robb, J. R. Cheeseman, J. A. Montgomery, Jr., T. Vreven, 
 K. N. Kudin, J. C. Burant, J. M. Millam, S. S. Iyengar, J. Tomasi, 
 V. Barone, B. Mennucci, M. Cossi, G. Scalmani, N. Rega, 
 G. A. Petersson, H. Nakatsuji, M. Hada, M. Ehara, K. Toyota, 
 R. Fukuda, J. Hasegawa, M. Ishida, T. Nakajima, Y. Honda, O. Kitao, 
 H. Nakai, M. Klene, X. Li, J. E. Knox, H. P. Hratchian, J. B. Cross, 
 V. Bakken, C. Adamo, J. Jaramillo, R. Gomperts, R. E. Stratmann, 
 O. Yazyev, A. J. Austin, R. Cammi, C. Pomelli, J. W. Ochterski, 
 P. Y. Ayala, K. Morokuma, G. A. Voth, P. Salvador, J. J. Dannenberg, 
 V. G. Zakrzewski, S. Dapprich, A. D. Daniels, M. C. Strain, 
 O. Farkas, D. K. Malick, A. D. Rabuck, K. Raghavachari, 
 J. B. Foresman, J. V. Ortiz, Q. Cui, A. G. Baboul, S. Clifford, 
 J. Cioslowski, B. B. Stefanov, G. Liu, A. Liashenko, P. Piskorz, 
 I. Komaromi, R. L. Martin, D. J. Fox, T. Keith, M. A. Al-Laham, 
 C. Y. Peng, A. Nanayakkara, M. Challacombe, P. M. W. Gill, 
 B. Johnson, W. Chen, M. W. Wong, C. Gonzalez, and J. A. Pople, 
 Gaussian, Inc., Wallingford CT, 2004.
 
 ******************************************
 Gaussian 03:  IA64L-G03RevD.01 13-Oct-2005
                 3-Aug-2008 
 ******************************************
 %Mem=4GB
 %NProcShared=16
 Will use up to   16 processors via shared memory.
 %Chk=molecule_15.chk
 Default route:  MaxDisk=64GB Cachesize=589840
 ------------------------------------------------------------------
 #p opt=gdiis b3lyp/aug-cc-pVDZ scf=tight integral=(grid=ultrafine)
 ------------------------------------------------------------------
 1/4=589840,14=-1,18=20,19=11,26=3,38=1/1,3;
 2/4=589840,9=110,17=6,18=5,40=1/2;
 3/4=589840,5=16,7=10,11=2,16=1,25=1,30=1,74=-5,75=5/1,2,3;
 4/4=589840/1;
 5/4=589840,5=2,32=2,38=5/2;
 6/4=589840,7=2,8=2,9=2,10=2,28=1/1;
 7/4=589840/1,2,3,16;
 1/4=589840,14=-1,18=20,19=11/3(3);
 2/4=589840,9=110/2;
 6/4=589840,7=2,8=2,9=2,10=2,19=2,28=1/1;
 99/4=589840/99;
 2/4=589840,9=110/2;
 3/4=589840,5=16,7=10,11=2,16=1,25=1,30=1,74=-5,75=5/1,2,3;
 4/4=589840,5=5,16=3/1;
 5/4=589840,5=2,32=2,38=5/2;
 7/4=589840/1,2,3,16;
 1/4=589840,14=-1,18=20,19=11/3(-5);
 2/4=589840,9=110/2;
 6/4=589840,7=2,8=2,9=2,10=2,19=2,28=1/1;
 99/4=589840,9=1/99;
 Leave Link    1 at Sun Aug  3 14:48:55 2008, MaxMem=  536870912 cpu:       2.0
 (Enter /usr/local/Chem-Apps/g03_d01/g03/l101.exe)
 ----------------------
 Molecule 15, geometry.
 ----------------------
 Symbolic Z-matrix:
 Charge =  0 Multiplicity = 1
 P                    -2.12041  -0.50823  -0.60337 
 O                    -1.78473   0.59003  -1.6025 
 O                    -3.51383  -0.91714  -0.16112 
 N                    -1.27975   0.08392   1.00064 
 H                    -1.42177   1.11868   1.05578 
 S                    -0.92563  -2.23973  -0.91266 
 C                     0.18735  -0.21166   1.15901 
 H                     0.59365   0.53581   1.84707 
 H                     0.2891   -1.20212   1.61439 
 C                     0.74732  -1.41434  -1.05798 
 H                     0.93835  -1.1751   -2.10832 
 O                    -3.27425  -1.18649   2.54494 
 H                    -3.6318   -1.24546   1.63001 
 H                    -3.38044  -2.06242   2.932 
 O                    -1.65578   2.85248   1.1265 
 H                    -1.09598   3.58002   1.41682 
 H                    -2.03878   3.12004   0.25188 
 H                    -1.82088  -0.35207   1.7727 
 O                    -2.59777   3.16388  -1.3664 
 H                    -2.38251   2.22796  -1.59562 
 H                    -3.53818   3.26806  -1.55063 
 C                     0.90219  -0.15985  -0.19407 
 H                     0.58071   0.72481  -0.74867 
 H                     1.43982  -2.20136  -0.73972 
 O                     2.29616   0.07933   0.01698 
 H                     2.54606   0.90702  -0.40024 
 
                    Isotopes and Nuclear Properties:
 (Nuclear quadrupole moments (NQMom) in fm**2, nuclear magnetic moments (NMagM)
  in nuclear magnetons)

  Atom         1           2           3           4           5           6           7           8           9          10
 IAtWgt=          31          16          16          14           1          32          12           1           1          12
 AtmWgt=  30.9737634  15.9949146  15.9949146  14.0030740   1.0078250  31.9720718  12.0000000   1.0078250   1.0078250  12.0000000
 NucSpn=           1           0           0           2           1           0           0           1           1           0
 AtZEff=   0.0000000   0.0000000   0.0000000   0.0000000   0.0000000   0.0000000   0.0000000   0.0000000   0.0000000   0.0000000
 NQMom=    0.0000000   0.0000000   0.0000000   2.0440000   0.0000000   0.0000000   0.0000000   0.0000000   0.0000000   0.0000000
 NMagM=    1.1316000   0.0000000   0.0000000   0.4037610   2.7928460   0.0000000   0.0000000   2.7928460   2.7928460   0.0000000

  Atom        11          12          13          14          15          16          17          18          19          20
 IAtWgt=           1          16           1           1          16           1           1           1          16           1
 AtmWgt=   1.0078250  15.9949146   1.0078250   1.0078250  15.9949146   1.0078250   1.0078250   1.0078250  15.9949146   1.0078250
 NucSpn=           1           0           1           1           0           1           1           1           0           1
 AtZEff=   0.0000000   0.0000000   0.0000000   0.0000000   0.0000000   0.0000000   0.0000000   0.0000000   0.0000000   0.0000000
 NQMom=    0.0000000   0.0000000   0.0000000   0.0000000   0.0000000   0.0000000   0.0000000   0.0000000   0.0000000   0.0000000
 NMagM=    2.7928460   0.0000000   2.7928460   2.7928460   0.0000000   2.7928460   2.7928460   2.7928460   0.0000000   2.7928460

  Atom        21          22          23          24          25          26
 IAtWgt=           1          12           1           1          16           1
 AtmWgt=   1.0078250  12.0000000   1.0078250   1.0078250  15.9949146   1.0078250
 NucSpn=           1           0           1           1           0           1
 AtZEff=   0.0000000   0.0000000   0.0000000   0.0000000   0.0000000   0.0000000
 NQMom=    0.0000000   0.0000000   0.0000000   0.0000000   0.0000000   0.0000000
 NMagM=    2.7928460   0.0000000   2.7928460   2.7928460   0.0000000   2.7928460
 Leave Link  101 at Sun Aug  3 14:48:55 2008, MaxMem=  536870912 cpu:       0.5
 (Enter /usr/local/Chem-Apps/g03_d01/g03/l103.exe)

 GradGradGradGradGradGradGradGradGradGradGradGradGradGradGradGradGradGrad
 Berny optimization.
 Initialization pass.
                           ----------------------------
                           !    Initial Parameters    !
                           ! (Angstroms and Degrees)  !
 --------------------------                            --------------------------
 ! Name  Definition              Value          Derivative Info.                !
 --------------------------------------------------------------------------------
 ! R1    R(1,2)                  1.5222         estimate D2E/DX2                !
 ! R2    R(1,3)                  1.518          estimate D2E/DX2                !
 ! R3    R(1,4)                  1.9053         estimate D2E/DX2                !
 ! R4    R(1,6)                  2.1263         estimate D2E/DX2                !
 ! R5    R(2,20)                 1.7436         estimate D2E/DX2                !
 ! R6    R(3,13)                 1.8248         estimate D2E/DX2                !
 ! R7    R(4,5)                  1.0459         estimate D2E/DX2                !
 ! R8    R(4,7)                  1.5049         estimate D2E/DX2                !
 ! R9    R(4,18)                 1.0387         estimate D2E/DX2                !
 ! R10   R(5,15)                 1.751          estimate D2E/DX2                !
 ! R11   R(6,10)                 1.8711         estimate D2E/DX2                !
 ! R12   R(7,8)                  1.0942         estimate D2E/DX2                !
 ! R13   R(7,9)                  1.0949         estimate D2E/DX2                !
 ! R14   R(7,22)                 1.5312         estimate D2E/DX2                !
 ! R15   R(10,11)                1.0941         estimate D2E/DX2                !
 ! R16   R(10,22)                1.531          estimate D2E/DX2                !
 ! R17   R(10,24)                1.0956         estimate D2E/DX2                !
 ! R18   R(12,13)                0.9841         estimate D2E/DX2                !
 ! R19   R(12,14)                0.9635         estimate D2E/DX2                !
 ! R20   R(12,18)                1.8452         estimate D2E/DX2                !
 ! R21   R(15,16)                0.9628         estimate D2E/DX2                !
 ! R22   R(15,17)                0.9916         estimate D2E/DX2                !
 ! R23   R(17,19)                1.7127         estimate D2E/DX2                !
 ! R24   R(19,20)                0.9873         estimate D2E/DX2                !
 ! R25   R(19,21)                0.9639         estimate D2E/DX2                !
 ! R26   R(22,23)                1.0925         estimate D2E/DX2                !
 ! R27   R(22,25)                1.43           estimate D2E/DX2                !
 ! R28   R(25,26)                0.96           estimate D2E/DX2                !
 ! A1    A(2,1,3)              126.0143         estimate D2E/DX2                !
 ! A2    A(2,1,4)              103.3581         estimate D2E/DX2                !
 ! A3    A(2,1,6)              111.6006         estimate D2E/DX2                !
 ! A4    A(3,1,4)              104.091          estimate D2E/DX2                !
 ! A5    A(3,1,6)              109.8042         estimate D2E/DX2                !
 ! A6    A(4,1,6)               97.3317         estimate D2E/DX2                !
 ! A7    A(1,2,20)             126.8387         estimate D2E/DX2                !
 ! A8    A(1,3,13)             113.1886         estimate D2E/DX2                !
 ! A9    A(1,4,5)              106.9749         estimate D2E/DX2                !
 ! A10   A(1,4,7)              117.2376         estimate D2E/DX2                !
 ! A11   A(1,4,18)             105.3924         estimate D2E/DX2                !
 ! A12   A(5,4,7)              108.7313         estimate D2E/DX2                !
 ! A13   A(5,4,18)             107.7779         estimate D2E/DX2                !
 ! A14   A(7,4,18)             110.3158         estimate D2E/DX2                !
 ! A15   A(1,6,10)              98.8863         estimate D2E/DX2                !
 ! A16   A(4,7,8)              107.0977         estimate D2E/DX2                !
 ! A17   A(4,7,9)              108.1827         estimate D2E/DX2                !
 ! A18   A(4,7,22)             110.8229         estimate D2E/DX2                !
 ! A19   A(8,7,9)              108.7799         estimate D2E/DX2                !
 ! A20   A(8,7,22)             111.0521         estimate D2E/DX2                !
 ! A21   A(9,7,22)             110.7791         estimate D2E/DX2                !
 ! A22   A(6,10,11)            109.0948         estimate D2E/DX2                !
 ! A23   A(6,10,22)            114.0831         estimate D2E/DX2                !
 ! A24   A(6,10,24)            103.0441         estimate D2E/DX2                !
 ! A25   A(11,10,22)           110.1749         estimate D2E/DX2                !
 ! A26   A(11,10,24)           109.0025         estimate D2E/DX2                !
 ! A27   A(22,10,24)           111.1468         estimate D2E/DX2                !
 ! A28   A(13,12,14)           106.1992         estimate D2E/DX2                !
 ! A29   A(13,12,18)            85.6513         estimate D2E/DX2                !
 ! A30   A(14,12,18)           131.7612         estimate D2E/DX2                !
 ! A31   A(3,13,12)            151.4395         estimate D2E/DX2                !
 ! A32   A(5,15,16)            133.0563         estimate D2E/DX2                !
 ! A33   A(5,15,17)            106.4507         estimate D2E/DX2                !
 ! A34   A(16,15,17)           106.6574         estimate D2E/DX2                !
 ! A35   A(15,17,19)           165.1071         estimate D2E/DX2                !
 ! A36   A(4,18,12)            155.6682         estimate D2E/DX2                !
 ! A37   A(17,19,20)            97.1197         estimate D2E/DX2                !
 ! A38   A(17,19,21)           120.1179         estimate D2E/DX2                !
 ! A39   A(20,19,21)           105.7102         estimate D2E/DX2                !
 ! A40   A(2,20,19)            165.0456         estimate D2E/DX2                !
 ! A41   A(7,22,10)            115.067          estimate D2E/DX2                !
 ! A42   A(7,22,23)            109.7926         estimate D2E/DX2                !
 ! A43   A(7,22,25)            109.2892         estimate D2E/DX2                !
 ! A44   A(10,22,23)           110.3212         estimate D2E/DX2                !
 ! A45   A(10,22,25)           108.598          estimate D2E/DX2                !
 ! A46   A(23,22,25)           103.0818         estimate D2E/DX2                !
 ! A47   A(22,25,26)           109.5            estimate D2E/DX2                !
 ! A48   L(4,5,15,1,-1)        179.45           estimate D2E/DX2                !
 ! A49   L(4,5,15,1,-2)        180.6142         estimate D2E/DX2                !
 ! D1    D(3,1,2,20)            50.0885         estimate D2E/DX2                !
 ! D2    D(4,1,2,20)           -68.7261         estimate D2E/DX2                !
 ! D3    D(6,1,2,20)          -172.3229         estimate D2E/DX2                !
 ! D4    D(2,1,3,13)          -138.4924         estimate D2E/DX2                !
 ! D5    D(4,1,3,13)           -20.0055         estimate D2E/DX2                !
 ! D6    D(6,1,3,13)            83.3054         estimate D2E/DX2                !
 ! D7    D(2,1,4,5)             39.6296         estimate D2E/DX2                !
 ! D8    D(2,1,4,7)            -82.6983         estimate D2E/DX2                !
 ! D9    D(2,1,4,18)           154.1583         estimate D2E/DX2                !
 ! D10   D(3,1,4,5)            -93.4248         estimate D2E/DX2                !
 ! D11   D(3,1,4,7)            144.2473         estimate D2E/DX2                !
 ! D12   D(3,1,4,18)            21.1039         estimate D2E/DX2                !
 ! D13   D(6,1,4,5)            153.9628         estimate D2E/DX2                !
 ! D14   D(6,1,4,7)             31.6349         estimate D2E/DX2                !
 ! D15   D(6,1,4,18)           -91.5085         estimate D2E/DX2                !
 ! D16   D(2,1,6,10)            47.2739         estimate D2E/DX2                !
 ! D17   D(3,1,6,10)          -168.1652         estimate D2E/DX2                !
 ! D18   D(4,1,6,10)           -60.2726         estimate D2E/DX2                !
 ! D19   D(1,2,20,19)           62.365          estimate D2E/DX2                !
 ! D20   D(1,3,13,12)           14.926          estimate D2E/DX2                !
 ! D21   D(1,4,15,16)         -141.7921         estimate D2E/DX2                !
 ! D22   D(1,4,15,17)           -8.8485         estimate D2E/DX2                !
 ! D23   D(7,4,15,16)          -14.5294         estimate D2E/DX2                !
 ! D24   D(7,4,15,17)          118.4142         estimate D2E/DX2                !
 ! D25   D(18,4,15,16)         105.2743         estimate D2E/DX2                !
 ! D26   D(18,4,15,17)        -121.7821         estimate D2E/DX2                !
 ! D27   D(1,4,7,8)            155.126          estimate D2E/DX2                !
 ! D28   D(1,4,7,9)            -87.7736         estimate D2E/DX2                !
 ! D29   D(1,4,7,22)            33.8558         estimate D2E/DX2                !
 ! D30   D(5,4,7,8)             33.708          estimate D2E/DX2                !
 ! D31   D(5,4,7,9)            150.8084         estimate D2E/DX2                !
 ! D32   D(5,4,7,22)           -87.5622         estimate D2E/DX2                !
 ! D33   D(18,4,7,8)           -84.2827         estimate D2E/DX2                !
 ! D34   D(18,4,7,9)            32.8177         estimate D2E/DX2                !
 ! D35   D(18,4,7,22)          154.4471         estimate D2E/DX2                !
 ! D36   D(1,4,18,12)          -18.0956         estimate D2E/DX2                !
 ! D37   D(5,4,18,12)           95.8753         estimate D2E/DX2                !
 ! D38   D(7,4,18,12)         -145.5495         estimate D2E/DX2                !
 ! D39   D(1,6,10,11)          -90.5623         estimate D2E/DX2                !
 ! D40   D(1,6,10,22)           33.1138         estimate D2E/DX2                !
 ! D41   D(1,6,10,24)          153.7226         estimate D2E/DX2                !
 ! D42   D(4,7,22,10)          -79.9551         estimate D2E/DX2                !
 ! D43   D(4,7,22,23)           45.1999         estimate D2E/DX2                !
 ! D44   D(4,7,22,25)          157.5837         estimate D2E/DX2                !
 ! D45   D(8,7,22,10)          161.1352         estimate D2E/DX2                !
 ! D46   D(8,7,22,23)          -73.7099         estimate D2E/DX2                !
 ! D47   D(8,7,22,25)           38.6739         estimate D2E/DX2                !
 ! D48   D(9,7,22,10)           40.1371         estimate D2E/DX2                !
 ! D49   D(9,7,22,23)          165.2921         estimate D2E/DX2                !
 ! D50   D(9,7,22,25)          -82.3241         estimate D2E/DX2                !
 ! D51   D(6,10,22,7)           35.4275         estimate D2E/DX2                !
 ! D52   D(6,10,22,23)         -89.452          estimate D2E/DX2                !
 ! D53   D(6,10,22,25)         158.2591         estimate D2E/DX2                !
 ! D54   D(11,10,22,7)         158.5188         estimate D2E/DX2                !
 ! D55   D(11,10,22,23)         33.6393         estimate D2E/DX2                !
 ! D56   D(11,10,22,25)        -78.6497         estimate D2E/DX2                !
 ! D57   D(24,10,22,7)         -80.5462         estimate D2E/DX2                !
 ! D58   D(24,10,22,23)        154.5743         estimate D2E/DX2                !
 ! D59   D(24,10,22,25)         42.2853         estimate D2E/DX2                !
 ! D60   D(14,12,13,3)        -134.1827         estimate D2E/DX2                !
 ! D61   D(18,12,13,3)          -1.8469         estimate D2E/DX2                !
 ! D62   D(13,12,18,4)           7.2797         estimate D2E/DX2                !
 ! D63   D(14,12,18,4)         115.1692         estimate D2E/DX2                !
 ! D64   D(5,15,17,19)          -9.8362         estimate D2E/DX2                !
 ! D65   D(16,15,17,19)        136.4052         estimate D2E/DX2                !
 ! D66   D(15,17,19,20)          0.9554         estimate D2E/DX2                !
 ! D67   D(15,17,19,21)        113.7807         estimate D2E/DX2                !
 ! D68   D(17,19,20,2)         -10.2632         estimate D2E/DX2                !
 ! D69   D(21,19,20,2)        -134.3492         estimate D2E/DX2                !
 ! D70   D(7,22,25,26)        -118.4957         estimate D2E/DX2                !
 ! D71   D(10,22,25,26)        115.2494         estimate D2E/DX2                !
 ! D72   D(23,22,25,26)         -1.7751         estimate D2E/DX2                !
 --------------------------------------------------------------------------------
 Trust Radius=3.00D-01 FncErr=1.00D-07 GrdErr=1.00D-06
 Number of steps in this run= 156 maximum allowed number of steps= 156.
 GradGradGradGradGradGradGradGradGradGradGradGradGradGradGradGradGradGrad

 Leave Link  103 at Sun Aug  3 14:48:55 2008, MaxMem=  536870912 cpu:       0.7
 (Enter /usr/local/Chem-Apps/g03_d01/g03/l202.exe)
                          Input orientation:                          
 ---------------------------------------------------------------------
 Center     Atomic     Atomic              Coordinates (Angstroms)
 Number     Number      Type              X           Y           Z
 ---------------------------------------------------------------------
    1         15             0       -2.120413   -0.508234   -0.603368
    2          8             0       -1.784727    0.590032   -1.602498
    3          8             0       -3.513832   -0.917138   -0.161124
    4          7             0       -1.279749    0.083918    1.000638
    5          1             0       -1.421765    1.118675    1.055783
    6         16             0       -0.925625   -2.239730   -0.912659
    7          6             0        0.187348   -0.211659    1.159010
    8          1             0        0.593651    0.535812    1.847067
    9          1             0        0.289104   -1.202115    1.614388
   10          6             0        0.747321   -1.414338   -1.057975
   11          1             0        0.938351   -1.175104   -2.108319
   12          8             0       -3.274251   -1.186494    2.544940
   13          1             0       -3.631799   -1.245457    1.630012
   14          1             0       -3.380438   -2.062416    2.931997
   15          8             0       -1.655784    2.852479    1.126499
   16          1             0       -1.095975    3.580022    1.416818
   17          1             0       -2.038782    3.120040    0.251884
   18          1             0       -1.820879   -0.352072    1.772704
   19          8             0       -2.597769    3.163884   -1.366397
   20          1             0       -2.382513    2.227955   -1.595619
   21          1             0       -3.538176    3.268062   -1.550630
   22          6             0        0.902193   -0.159846   -0.194068
   23          1             0        0.580705    0.724813   -0.748669
   24          1             0        1.439822   -2.201356   -0.739716
   25          8             0        2.296164    0.079325    0.016980
   26          1             0        2.546055    0.907024   -0.400237
 ---------------------------------------------------------------------
                    Distance matrix (angstroms):
                    1          2          3          4          5
     1  P    0.000000
     2  O    1.522214   0.000000
     3  O    1.518025   2.709045   0.000000
     4  N    1.905307   2.699532   2.709784   0.000000
     5  H    2.426463   2.734532   3.162616   1.045912   0.000000
     6  S    2.126325   3.036690   3.002144   3.030751   3.924258
     7  C    2.918851   3.486791   3.992391   1.504932   2.090380
     8  H    3.802737   4.190360   4.797428   2.104823   2.242267
     9  H    3.347489   4.226218   4.206659   2.119403   2.936865
    10  C    3.041643   3.274946   4.382804   3.254485   3.948299
    11  H    3.473562   3.284313   4.866215   4.021283   4.565426
    12  O    3.420997   4.751418   2.729970   2.824332   3.311057
    13  H    2.795670   4.150881   1.824795   2.774074   3.286808
    14  H    4.062259   5.490302   3.301038   3.570685   4.180421
    15  O    3.808243   3.547213   4.395489   2.796815   1.750955
    16  H    4.673806   4.304729   5.344191   3.525581   2.508927
    17  H    3.728605   3.147097   4.318004   3.217888   2.243307
    18  H    2.399964   3.504405   2.631555   1.038747   1.684151
    19  O    3.780811   2.709519   4.352769   4.101978   3.381246
    20  H    2.922326   1.743613   3.637206   3.543097   3.030424
    21  H    4.143401   3.201424   4.409900   4.663500   3.986533
    22  C    3.070024   3.124985   4.480609   2.499523   2.932154
    23  H    2.972803   2.518424   4.450443   2.632890   2.724162
    24  H    3.944683   4.351317   5.150017   3.955676   4.736571
    25  O    4.498468   4.420091   5.897518   3.708741   3.997794
    26  H    4.880589   4.505729   6.333007   4.156529   4.231830
                    6          7          8          9         10
     6  S    0.000000
     7  C    3.105414   0.000000
     8  H    4.198562   1.094174   0.000000
     9  H    2.989679   1.094864   1.779685   0.000000
    10  C    1.871133   2.583608   3.502280   2.719655   0.000000
    11  H    2.457120   3.488219   4.323324   3.778994   1.094051
    12  O    4.310492   3.854059   4.291157   3.682889   5.404253
    13  H    3.844104   3.984528   4.590693   3.921174   5.141059
    14  H    4.564967   4.392935   4.870446   3.992712   5.777394
    15  O    5.533705   3.575910   3.308492   4.523313   5.362142
    16  H    6.270964   4.011263   3.508157   4.982601   5.870773
    17  H    5.596643   4.108376   4.019023   5.094752   5.480756
    18  H    3.402338   2.104593   2.573679   2.280277   3.966964
    19  O    5.674591   5.052608   5.236246   6.023376   5.678456
    20  H    4.748596   4.488194   4.855202   5.404356   4.832310
    21  H    6.129291   5.773226   6.006790   6.681908   6.366558
    22  C    2.860631   1.531179   2.178387   2.175481   1.531036
    23  H    3.329330   2.161238   2.602640   3.063025   2.167810
    24  H    2.372071   3.022043   3.859992   2.804361   1.095556
    25  O    4.077030   2.415784   2.540895   2.867419   2.405301
    26  H    4.713512   3.040757   3.000009   3.687955   3.009449
                   11         12         13         14         15
    11  H    0.000000
    12  O    6.276859   0.000000
    13  H    5.904773   0.984078   0.000000
    14  H    6.696570   0.963498   1.557488   0.000000
    15  O    5.780572   4.576539   4.577252   5.512753   0.000000
    16  H    6.259097   5.360711   5.455374   6.273089   0.962803
    17  H    5.734295   5.032964   4.847113   5.986727   0.991578
    18  H    4.832502   1.845237   2.024334   2.588718   3.273222
    19  O    5.646363   5.889140   5.430467   6.811973   2.683065
    20  H    4.782448   5.440394   4.902041   6.316838   2.885843
    21  H    6.331827   6.056931   5.522418   6.966550   3.298959
    22  C    2.167121   5.098907   5.006286   5.633204   4.166683
    23  H    2.363524   5.418638   5.223531   6.083305   3.611800
    24  H    1.782622   5.834500   5.678969   6.060997   6.213436
    25  O    2.816762   6.246792   6.284717   6.731136   4.953717
    26  H    3.136481   6.850755   6.849888   7.419210   4.875569
                   16         17         18         19         20
    16  H    0.000000
    17  H    1.567654   0.000000
    18  H    4.014163   3.796832   0.000000
    19  O    3.189803   1.712665   4.776972   0.000000
    20  H    3.543733   2.080200   4.279903   0.987340   0.000000
    21  H    3.855828   2.349287   5.205673   0.963930   1.555443
    22  C    4.535884   4.427850   3.364560   4.967018   4.295955
    23  H    3.956363   3.687808   3.644806   4.053807   3.428910
    24  H    6.671225   6.434377   4.512680   6.743936   5.912834
    25  O    5.071591   5.300272   4.496523   5.948009   5.395100
    26  H    4.869394   5.132586   5.037570   5.699633   5.240666
                   21         22         23         24         25
    21  H    0.000000
    22  C    5.771282   0.000000
    23  H    4.906775   1.092501   0.000000
    24  H    7.439931   2.180491   3.049693   0.000000
    25  O    6.831176   1.430000   1.986372   2.550964   0.000000
    26  H    6.626898   1.970533   2.004297   3.316779   0.960000
                   26
    26  H    0.000000
 Stoichiometry    C3H14NO6PS
 Framework group  C1[X(C3H14NO6PS)]
 Deg. of freedom    72
 Full point group                 C1
 Largest Abelian subgroup         C1      NOp   1
 Largest concise Abelian subgroup C1      NOp   1
                         Standard orientation:                         
 ---------------------------------------------------------------------
 Center     Atomic     Atomic              Coordinates (Angstroms)
 Number     Number      Type              X           Y           Z
 ---------------------------------------------------------------------
    1         15             0        0.347481    0.792125   -0.755897
    2          8             0        0.701312   -0.441859   -1.573956
    3          8             0        1.172366    2.062425   -0.654394
    4          7             0        0.288160    0.133534    1.030981
    5          1             0        1.077412   -0.545202    1.132616
    6         16             0       -1.713677    1.283766   -0.932450
    7          6             0       -0.984403   -0.534749    1.476856
    8          1             0       -0.721274   -1.217377    2.290490
    9          1             0       -1.656610    0.236312    1.867150
   10          6             0       -2.441503   -0.417278   -0.653423
   11          1             0       -2.547147   -0.923876   -1.617345
   12          8             0        1.124236    2.646625    2.011901
   13          1             0        1.249204    2.735803    1.039872
   14          1             0        0.674701    3.448715    2.299821
   15          8             0        2.394449   -1.689208    1.282638
   16          1             0        2.484583   -2.531491    1.740267
   17          1             0        2.756590   -1.821873    0.369138
   18          1             0        0.495358    0.953507    1.634064
   19          8             0        3.019600   -1.821774   -1.323212
   20          1             0        2.220448   -1.297667   -1.571221
   21          1             0        3.770138   -1.345476   -1.696029
   22          6             0       -1.638753   -1.288953    0.316033
   23          1             0       -0.882672   -1.861818   -0.225932
   24          1             0       -3.438029   -0.197503   -0.254828
   25          8             0       -2.500895   -2.303412    0.838034
   26          1             0       -2.193798   -3.165436    0.547849
 ---------------------------------------------------------------------
 Rotational constants (GHZ):      0.6204114      0.5233715      0.4280673
 Leave Link  202 at Sun Aug  3 14:48:55 2008, MaxMem=  536870912 cpu:       0.3
 (Enter /usr/local/Chem-Apps/g03_d01/g03/l301.exe)
 Standard basis: Aug-CC-pVDZ (5D, 7F)
 There are   410 symmetry adapted basis functions of A   symmetry.
 Integral buffers will be    131072 words long.
 Raffenetti 2 integral format.
 Two-electron integral symmetry is turned on.
   410 basis functions,   750 primitive gaussians,   434 cartesian basis functions
    59 alpha electrons       59 beta electrons
       nuclear repulsion energy      1108.0729591111 Hartrees.
 IExCor= 402 DFT=T Ex=B+HF Corr=LYP ExCW=0 ScaHFX=  0.200000
 ScaDFX=  0.800000  0.720000  1.000000  0.810000
 IRadAn=      5 IRanWt=     -1 IRanGd=            0 ICorTp=0
 NAtoms=   26 NActive=   26 NUniq=   26 SFac= 7.50D-01 NAtFMM=   80 NAOKFM=F Big=F
 Leave Link  301 at Sun Aug  3 14:48:56 2008, MaxMem=  536870912 cpu:       0.3
 (Enter /usr/local/Chem-Apps/g03_d01/g03/l302.exe)
 NPDir=0 NMtPBC=     1 NCelOv=     1 NCel=       1 NClECP=     1 NCelD=      1
         NCelK=      1 NCelE2=     1 NClLst=     1 CellRange=     0.0.
 One-electron integrals computed using PRISM.
 NBasis=   410 RedAO= T  NBF=   410
 NBsUse=   410 1.00D-06 NBFU=   410
 Precomputing XC quadrature grid using
 IXCGrd= 2 IRadAn=           5 IRanWt=          -1 IRanGd=           0.
 NRdTot=    2239 NPtTot=      603864 NUsed=      619642 NTot=      619674
 NSgBfM=   434   434   434   434.
 Leave Link  302 at Sun Aug  3 14:48:57 2008, MaxMem=  536870912 cpu:      16.5
 (Enter /usr/local/Chem-Apps/g03_d01/g03/l303.exe)
 DipDrv:  MaxL=1.
 Leave Link  303 at Sun Aug  3 14:48:58 2008, MaxMem=  536870912 cpu:       1.6
 (Enter /usr/local/Chem-Apps/g03_d01/g03/l401.exe)
 Harris functional with IExCor=  402 diagonalized for initial guess.
 ExpMin= 2.97D-02 ExpMax= 1.11D+05 ExpMxC= 3.24D+03 IAcc=3 IRadAn=         5 AccDes= 0.00D+00
 HarFok:  IExCor= 402 AccDes= 0.00D+00 IRadAn=         5 IDoV=1
 ScaDFX=  1.000000  1.000000  1.000000  1.000000
 Harris En= -1368.81770991541    
 Initial guess orbital symmetries:
       Occupied  (A) (A) (A) (A) (A) (A) (A) (A) (A) (A) (A) (A)
                 (A) (A) (A) (A) (A) (A) (A) (A) (A) (A) (A) (A)
                 (A) (A) (A) (A) (A) (A) (A) (A) (A) (A) (A) (A)
                 (A) (A) (A) (A) (A) (A) (A) (A) (A) (A) (A) (A)
                 (A) (A) (A) (A) (A) (A) (A) (A) (A) (A) (A)
       Virtual   (A) (A) (A) (A) (A) (A) (A) (A) (A) (A) (A) (A)
                 (A) (A) (A) (A) (A) (A) (A) (A) (A) (A) (A) (A)
                 (A) (A) (A) (A) (A) (A) (A) (A) (A) (A) (A) (A)
                 (A) (A) (A) (A) (A) (A) (A) (A) (A) (A) (A) (A)
                 (A) (A) (A) (A) (A) (A) (A) (A) (A) (A) (A) (A)
                 (A) (A) (A) (A) (A) (A) (A) (A) (A) (A) (A) (A)
                 (A) (A) (A) (A) (A) (A) (A) (A) (A) (A) (A) (A)
                 (A) (A) (A) (A) (A) (A) (A) (A) (A) (A) (A) (A)
                 (A) (A) (A) (A) (A) (A) (A) (A) (A) (A) (A) (A)
                 (A) (A) (A) (A) (A) (A) (A) (A) (A) (A) (A) (A)
                 (A) (A) (A) (A) (A) (A) (A) (A) (A) (A) (A) (A)
                 (A) (A) (A) (A) (A) (A) (A) (A) (A) (A) (A) (A)
                 (A) (A) (A) (A) (A) (A) (A) (A) (A) (A) (A) (A)
                 (A) (A) (A) (A) (A) (A) (A) (A) (A) (A) (A) (A)
                 (A) (A) (A) (A) (A) (A) (A) (A) (A) (A) (A) (A)
                 (A) (A) (A) (A) (A) (A) (A) (A) (A) (A) (A) (A)
                 (A) (A) (A) (A) (A) (A) (A) (A) (A) (A) (A) (A)
                 (A) (A) (A) (A) (A) (A) (A) (A) (A) (A) (A) (A)
                 (A) (A) (A) (A) (A) (A) (A) (A) (A) (A) (A) (A)
                 (A) (A) (A) (A) (A) (A) (A) (A) (A) (A) (A) (A)
                 (A) (A) (A) (A) (A) (A) (A) (A) (A) (A) (A) (A)
                 (A) (A) (A) (A) (A) (A) (A) (A) (A) (A) (A) (A)
                 (A) (A) (A) (A) (A) (A) (A) (A) (A) (A) (A) (A)
                 (A) (A) (A) (A) (A) (A) (A) (A) (A) (A) (A) (A)
                 (A) (A) (A) (A) (A) (A) (A) (A) (A) (A) (A) (A)
                 (A) (A) (A) (A) (A) (A) (A) (A) (A) (A) (A) (A)
                 (A) (A) (A) (A) (A) (A) (A) (A) (A) (A) (A) (A)
                 (A) (A) (A) (A) (A) (A) (A) (A) (A) (A) (A) (A)
                 (A) (A) (A) (A) (A) (A) (A) (A) (A) (A) (A) (A)
                 (A) (A) (A)
 The electronic state of the initial guess is 1-A.
 Leave Link  401 at Sun Aug  3 14:49:03 2008, MaxMem=  536870912 cpu:      66.1
 (Enter /usr/local/Chem-Apps/g03_d01/g03/l502.exe)
 Closed shell SCF:
 Requested convergence on RMS density matrix=1.00D-08 within 128 cycles.
 Requested convergence on MAX density matrix=1.00D-06.
 Requested convergence on             energy=1.00D-06.
 No special actions if energy rises.
 Using DIIS extrapolation, IDIIS=  1040.
 Integral symmetry usage will be decided dynamically.
       619641 words used for storage of precomputed grid.
 IEnd=   1305970 IEndB=   1305970 NGot= 536870912 MDV= 535770373
 LenX= 535770373
 Fock matrices will be formed incrementally for  20 cycles.

 Cycle   1  Pass 1  IDiag  1:
 Petite list used in FoFDir.
 MinBra= 0 MaxBra= 2 Meth= 1.
 IRaf=       0 NMat=   1 IRICut=       1 DoRegI=T DoRafI=F ISym2E= 1 JSym2E=1.
 E= -1368.04259471129    
 DIIS: error= 2.14D-02 at cycle   1 NSaved=   1.
 NSaved= 1 IEnMin= 1 EnMin= -1368.04259471129     IErMin= 1 ErrMin= 2.14D-02
 ErrMax= 2.14D-02 EMaxC= 1.00D-01 BMatC= 7.70D-01 BMatP= 7.70D-01
 IDIUse=3 WtCom= 7.86D-01 WtEn= 2.14D-01
 Coeff-Com:  0.100D+01
 Coeff-En:   0.100D+01
 Coeff:      0.100D+01
 Gap=     0.319 Goal=   None    Shift=    0.000
 GapD=    0.319 DampG=1.000 DampE=0.500 DampFc=0.5000 IDamp=-1.
 Damping current iteration by 5.00D-01
 RMSDP=8.50D-03 MaxDP=7.13D-01              OVMax= 3.19D-01

 Cycle   2  Pass 1  IDiag  1:
 RMSU=  3.87D-03    CP:  9.28D-01
 E= -1368.08967280161     Delta-E=       -0.047078090322 Rises=F Damp=T
 DIIS: error= 9.37D-03 at cycle   2 NSaved=   2.
 NSaved= 2 IEnMin= 2 EnMin= -1368.08967280161     IErMin= 2 ErrMin= 9.37D-03
 ErrMax= 9.37D-03 EMaxC= 1.00D-01 BMatC= 1.43D-01 BMatP= 7.70D-01
 IDIUse=3 WtCom= 9.06D-01 WtEn= 9.37D-02
 Coeff-Com:  0.280D+00 0.720D+00
 Coeff-En:   0.468D+00 0.532D+00
 Coeff:      0.297D+00 0.703D+00
 Gap=     0.272 Goal=   None    Shift=    0.000
 RMSDP=4.14D-03 MaxDP=6.15D-01 DE=-4.71D-02 OVMax= 2.18D-01

 Cycle   3  Pass 1  IDiag  1:
 RMSU=  3.16D-03    CP:  8.25D-01  7.53D-01
 E= -1368.58067268307     Delta-E=       -0.490999881466 Rises=F Damp=F
 DIIS: error= 4.30D-03 at cycle   3 NSaved=   3.
 NSaved= 3 IEnMin= 3 EnMin= -1368.58067268307     IErMin= 3 ErrMin= 4.30D-03
 ErrMax= 4.30D-03 EMaxC= 1.00D-01 BMatC= 5.51D-02 BMatP= 1.43D-01
 IDIUse=3 WtCom= 9.57D-01 WtEn= 4.30D-02
 Coeff-Com:  0.131D+00 0.434D+00 0.435D+00
 Coeff-En:   0.000D+00 0.000D+00 0.100D+01
 Coeff:      0.126D+00 0.415D+00 0.459D+00
 Gap=     0.229 Goal=   None    Shift=    0.000
 RMSDP=1.03D-03 MaxDP=4.63D-02 DE=-4.91D-01 OVMax= 5.42D-02

 Cycle   4  Pass 1  IDiag  1:
 RMSU=  8.01D-04    CP:  8.37D-01  8.14D-01  8.29D-01
 E= -1368.62746750682     Delta-E=       -0.046794823746 Rises=F Damp=F
 DIIS: error= 1.56D-03 at cycle   4 NSaved=   4.
 NSaved= 4 IEnMin= 4 EnMin= -1368.62746750682     IErMin= 4 ErrMin= 1.56D-03
 ErrMax= 1.56D-03 EMaxC= 1.00D-01 BMatC= 4.35D-03 BMatP= 5.51D-02
 IDIUse=3 WtCom= 9.84D-01 WtEn= 1.56D-02
 Coeff-Com:  0.125D-01 0.119D+00 0.231D+00 0.638D+00
 Coeff-En:   0.000D+00 0.000D+00 0.000D+00 0.100D+01
 Coeff:      0.123D-01 0.117D+00 0.227D+00 0.643D+00
 Gap=     0.233 Goal=   None    Shift=    0.000
 RMSDP=3.05D-04 MaxDP=2.97D-02 DE=-4.68D-02 OVMax= 1.18D-02

 Cycle   5  Pass 1  IDiag  1:
 RMSU=  2.49D-04    CP:  8.40D-01  8.17D-01  8.09D-01  8.25D-01
 E= -1368.63064232182     Delta-E=       -0.003174815004 Rises=F Damp=F
 DIIS: error= 4.17D-04 at cycle   5 NSaved=   5.
 NSaved= 5 IEnMin= 5 EnMin= -1368.63064232182     IErMin= 5 ErrMin= 4.17D-04
 ErrMax= 4.17D-04 EMaxC= 1.00D-01 BMatC= 4.55D-04 BMatP= 4.35D-03
 IDIUse=3 WtCom= 9.96D-01 WtEn= 4.17D-03
 Coeff-Com: -0.681D-02 0.226D-01 0.646D-01 0.322D+00 0.597D+00
 Coeff-En:   0.000D+00 0.000D+00 0.000D+00 0.283D-01 0.972D+00
 Coeff:     -0.678D-02 0.225D-01 0.643D-01 0.321D+00 0.599D+00
 Gap=     0.227 Goal=   None    Shift=    0.000
 RMSDP=9.31D-05 MaxDP=4.43D-03 DE=-3.17D-03 OVMax= 4.72D-03

 Cycle   6  Pass 1  IDiag  1:
 RMSU=  7.94D-05    CP:  8.40D-01  8.27D-01  8.10D-01  8.17D-01  8.90D-01
 E= -1368.63104328232     Delta-E=       -0.000400960501 Rises=F Damp=F
 DIIS: error= 9.73D-05 at cycle   6 NSaved=   6.
 NSaved= 6 IEnMin= 6 EnMin= -1368.63104328232     IErMin= 6 ErrMin= 9.73D-05
 ErrMax= 9.73D-05 EMaxC= 1.00D-01 BMatC= 2.28D-05 BMatP= 4.55D-04
 IDIUse=1 WtCom= 1.00D+00 WtEn= 0.00D+00
 Coeff-Com: -0.372D-02 0.272D-02 0.127D-01 0.969D-01 0.265D+00 0.626D+00
 Coeff:     -0.372D-02 0.272D-02 0.127D-01 0.969D-01 0.265D+00 0.626D+00
 Gap=     0.228 Goal=   None    Shift=    0.000
 RMSDP=2.87D-05 MaxDP=2.66D-03 DE=-4.01D-04 OVMax= 9.69D-04

 Cycle   7  Pass 1  IDiag  1:
 RMSU=  2.11D-05    CP:  8.39D-01  8.27D-01  8.11D-01  8.34D-01  8.79D-01
                    CP:  8.76D-01
 E= -1368.63106328148     Delta-E=       -0.000019999156 Rises=F Damp=F
 DIIS: error= 3.03D-05 at cycle   7 NSaved=   7.
 NSaved= 7 IEnMin= 7 EnMin= -1368.63106328148     IErMin= 7 ErrMin= 3.03D-05
 ErrMax= 3.03D-05 EMaxC= 1.00D-01 BMatC= 1.99D-06 BMatP= 2.28D-05
 IDIUse=1 WtCom= 1.00D+00 WtEn= 0.00D+00
 Coeff-Com: -0.122D-02-0.284D-03 0.167D-02 0.235D-01 0.849D-01 0.300D+00
 Coeff-Com:  0.591D+00
 Coeff:     -0.122D-02-0.284D-03 0.167D-02 0.235D-01 0.849D-01 0.300D+00
 Coeff:      0.591D+00
 Gap=     0.228 Goal=   None    Shift=    0.000
 RMSDP=6.87D-06 MaxDP=3.06D-04 DE=-2.00D-05 OVMax= 3.03D-04

 Cycle   8  Pass 1  IDiag  1:
 RMSU=  4.80D-06    CP:  8.39D-01  8.27D-01  8.11D-01  8.33D-01  8.88D-01
                    CP:  8.64D-01  8.19D-01
 E= -1368.63106499726     Delta-E=       -0.000001715778 Rises=F Damp=F
 DIIS: error= 1.16D-05 at cycle   8 NSaved=   8.
 NSaved= 8 IEnMin= 8 EnMin= -1368.63106499726     IErMin= 8 ErrMin= 1.16D-05
 ErrMax= 1.16D-05 EMaxC= 1.00D-01 BMatC= 2.23D-07 BMatP= 1.99D-06
 IDIUse=1 WtCom= 1.00D+00 WtEn= 0.00D+00
 Coeff-Com: -0.277D-03-0.369D-03-0.171D-03 0.409D-02 0.218D-01 0.103D+00
 Coeff-Com:  0.306D+00 0.566D+00
 Coeff:     -0.277D-03-0.369D-03-0.171D-03 0.409D-02 0.218D-01 0.103D+00
 Coeff:      0.306D+00 0.566D+00
 Gap=     0.228 Goal=   None    Shift=    0.000
 RMSDP=1.89D-06 MaxDP=7.47D-05 DE=-1.72D-06 OVMax= 9.01D-05

 Cycle   9  Pass 1  IDiag  1:
 RMSU=  1.62D-06    CP:  8.39D-01  8.27D-01  8.11D-01  8.32D-01  8.88D-01
                    CP:  8.71D-01  8.12D-01  8.97D-01
 E= -1368.63106516653     Delta-E=       -0.000000169269 Rises=F Damp=F
 DIIS: error= 3.04D-06 at cycle   9 NSaved=   9.
 NSaved= 9 IEnMin= 9 EnMin= -1368.63106516653     IErMin= 9 ErrMin= 3.04D-06
 ErrMax= 3.04D-06 EMaxC= 1.00D-01 BMatC= 2.80D-08 BMatP= 2.23D-07
 IDIUse=1 WtCom= 1.00D+00 WtEn= 0.00D+00
 Coeff-Com: -0.335D-04-0.170D-03-0.233D-03 0.201D-03 0.394D-02 0.269D-01
 Coeff-Com:  0.107D+00 0.312D+00 0.551D+00
 Coeff:     -0.335D-04-0.170D-03-0.233D-03 0.201D-03 0.394D-02 0.269D-01
 Coeff:      0.107D+00 0.312D+00 0.551D+00
 Gap=     0.228 Goal=   None    Shift=    0.000
 RMSDP=7.27D-07 MaxDP=2.69D-05 DE=-1.69D-07 OVMax= 4.56D-05

 Cycle  10  Pass 1  IDiag  1:
 RMSU=  6.16D-07    CP:  8.39D-01  8.27D-01  8.11D-01  8.33D-01  8.88D-01
                    CP:  8.72D-01  8.20D-01  8.81D-01  8.24D-01
 E= -1368.63106518583     Delta-E=       -0.000000019299 Rises=F Damp=F
 DIIS: error= 1.98D-06 at cycle  10 NSaved=  10.
 NSaved=10 IEnMin=10 EnMin= -1368.63106518583     IErMin=10 ErrMin= 1.98D-06
 ErrMax= 1.98D-06 EMaxC= 1.00D-01 BMatC= 5.81D-09 BMatP= 2.80D-08
 IDIUse=1 WtCom= 1.00D+00 WtEn= 0.00D+00
 Coeff-Com:  0.945D-05-0.698D-04-0.149D-03-0.357D-03 0.969D-04 0.583D-02
 Coeff-Com:  0.344D-01 0.137D+00 0.361D+00 0.462D+00
 Coeff:      0.945D-05-0.698D-04-0.149D-03-0.357D-03 0.969D-04 0.583D-02
 Coeff:      0.344D-01 0.137D+00 0.361D+00 0.462D+00
 Gap=     0.228 Goal=   None    Shift=    0.000
 RMSDP=2.81D-07 MaxDP=1.16D-05 DE=-1.93D-08 OVMax= 2.02D-05

 Cycle  11  Pass 1  IDiag  1:
 RMSU=  1.95D-07    CP:  8.39D-01  8.27D-01  8.11D-01  8.33D-01  8.88D-01
                    CP:  8.71D-01  8.21D-01  8.83D-01  8.24D-01  6.99D-01
 E= -1368.63106519045     Delta-E=       -0.000000004619 Rises=F Damp=F
 DIIS: error= 4.68D-07 at cycle  11 NSaved=  11.
 NSaved=11 IEnMin=11 EnMin= -1368.63106519045     IErMin=11 ErrMin= 4.68D-07
 ErrMax= 4.68D-07 EMaxC= 1.00D-01 BMatC= 5.08D-10 BMatP= 5.81D-09
 IDIUse=1 WtCom= 1.00D+00 WtEn= 0.00D+00
 Coeff-Com:  0.918D-05-0.186D-04-0.640D-04-0.253D-03-0.490D-03-0.203D-03
 Coeff-Com:  0.567D-02 0.377D-01 0.137D+00 0.274D+00 0.546D+00
 Coeff:      0.918D-05-0.186D-04-0.640D-04-0.253D-03-0.490D-03-0.203D-03
 Coeff:      0.567D-02 0.377D-01 0.137D+00 0.274D+00 0.546D+00
 Gap=     0.228 Goal=   None    Shift=    0.000
 RMSDP=8.94D-08 MaxDP=5.80D-06 DE=-4.62D-09 OVMax= 4.76D-06

 Cycle  12  Pass 1  IDiag  1:
 RMSU=  7.25D-08    CP:  8.39D-01  8.27D-01  8.11D-01  8.33D-01  8.88D-01
                    CP:  8.71D-01  8.20D-01  8.89D-01  8.21D-01  6.86D-01
                    CP:  8.53D-01
 E= -1368.63106519085     Delta-E=       -0.000000000407 Rises=F Damp=F
 DIIS: error= 1.52D-07 at cycle  12 NSaved=  12.
 NSaved=12 IEnMin=12 EnMin= -1368.63106519085     IErMin=12 ErrMin= 1.52D-07
 ErrMax= 1.52D-07 EMaxC= 1.00D-01 BMatC= 4.01D-11 BMatP= 5.08D-10
 IDIUse=1 WtCom= 1.00D+00 WtEn= 0.00D+00
 Coeff-Com:  0.141D-05 0.967D-06-0.107D-04-0.519D-04-0.184D-03-0.666D-03
 Coeff-Com: -0.149D-02 0.694D-03 0.190D-01 0.786D-01 0.270D+00 0.634D+00
 Coeff:      0.141D-05 0.967D-06-0.107D-04-0.519D-04-0.184D-03-0.666D-03
 Coeff:     -0.149D-02 0.694D-03 0.190D-01 0.786D-01 0.270D+00 0.634D+00
 Gap=     0.228 Goal=   None    Shift=    0.000
 RMSDP=3.29D-08 MaxDP=1.76D-06 DE=-4.07D-10 OVMax= 1.71D-06

 Cycle  13  Pass 1  IDiag  1:
 RMSU=  1.91D-08    CP:  8.39D-01  8.27D-01  8.11D-01  8.33D-01  8.88D-01
                    CP:  8.72D-01  8.21D-01  8.89D-01  8.27D-01  7.08D-01
                    CP:  8.55D-01  7.34D-01
 E= -1368.63106519082     Delta-E=        0.000000000038 Rises=F Damp=F
 DIIS: error= 2.63D-08 at cycle  13 NSaved=  13.
 NSaved=13 IEnMin=12 EnMin= -1368.63106519085     IErMin=13 ErrMin= 2.63D-08
 ErrMax= 2.63D-08 EMaxC= 1.00D-01 BMatC= 2.10D-12 BMatP= 4.01D-11
 IDIUse=1 WtCom= 1.00D+00 WtEn= 0.00D+00
 Coeff-Com:  0.156D-06 0.148D-05-0.206D-05-0.150D-04-0.742D-04-0.328D-03
 Coeff-Com: -0.107D-02-0.222D-02-0.540D-03 0.176D-01 0.805D-01 0.263D+00
 Coeff-Com:  0.644D+00
 Coeff:      0.156D-06 0.148D-05-0.206D-05-0.150D-04-0.742D-04-0.328D-03
 Coeff:     -0.107D-02-0.222D-02-0.540D-03 0.176D-01 0.805D-01 0.263D+00
 Coeff:      0.644D+00
 Gap=     0.228 Goal=   None    Shift=    0.000
 RMSDP=8.84D-09 MaxDP=5.23D-07 DE= 3.77D-11 OVMax= 3.89D-07

 SCF Done:  E(RB+HF-LYP) =  -1368.63106519     A.U. after   13 cycles
             Convg  =    0.8836D-08             -V/T =  2.0044
             S**2   =   0.0000
 KE= 1.362660084020D+03 PE=-5.452117895765D+03 EE= 1.612753787442D+03
 Leave Link  502 at Sun Aug  3 14:52:54 2008, MaxMem=  536870912 cpu:    3603.7
 (Enter /usr/local/Chem-Apps/g03_d01/g03/l601.exe)
 Copying SCF densities to generalized density rwf, ISCF=0 IROHF=0.

 **********************************************************************

            Population analysis using the SCF density.

 **********************************************************************

 Orbital symmetries:
       Occupied  (A) (A) (A) (A) (A) (A) (A) (A) (A) (A) (A) (A)
                 (A) (A) (A) (A) (A) (A) (A) (A) (A) (A) (A) (A)
                 (A) (A) (A) (A) (A) (A) (A) (A) (A) (A) (A) (A)
                 (A) (A) (A) (A) (A) (A) (A) (A) (A) (A) (A) (A)
                 (A) (A) (A) (A) (A) (A) (A) (A) (A) (A) (A)
       Virtual   (A) (A) (A) (A) (A) (A) (A) (A) (A) (A) (A) (A)
                 (A) (A) (A) (A) (A) (A) (A) (A) (A) (A) (A) (A)
                 (A) (A) (A) (A) (A) (A) (A) (A) (A) (A) (A) (A)
                 (A) (A) (A) (A) (A) (A) (A) (A) (A) (A) (A) (A)
                 (A) (A) (A) (A) (A) (A) (A) (A) (A) (A) (A) (A)
                 (A) (A) (A) (A) (A) (A) (A) (A) (A) (A) (A) (A)
                 (A) (A) (A) (A) (A) (A) (A) (A) (A) (A) (A) (A)
                 (A) (A) (A) (A) (A) (A) (A) (A) (A) (A) (A) (A)
                 (A) (A) (A) (A) (A) (A) (A) (A) (A) (A) (A) (A)
                 (A) (A) (A) (A) (A) (A) (A) (A) (A) (A) (A) (A)
                 (A) (A) (A) (A) (A) (A) (A) (A) (A) (A) (A) (A)
                 (A) (A) (A) (A) (A) (A) (A) (A) (A) (A) (A) (A)
                 (A) (A) (A) (A) (A) (A) (A) (A) (A) (A) (A) (A)
                 (A) (A) (A) (A) (A) (A) (A) (A) (A) (A) (A) (A)
                 (A) (A) (A) (A) (A) (A) (A) (A) (A) (A) (A) (A)
                 (A) (A) (A) (A) (A) (A) (A) (A) (A) (A) (A) (A)
                 (A) (A) (A) (A) (A) (A) (A) (A) (A) (A) (A) (A)
                 (A) (A) (A) (A) (A) (A) (A) (A) (A) (A) (A) (A)
                 (A) (A) (A) (A) (A) (A) (A) (A) (A) (A) (A) (A)
                 (A) (A) (A) (A) (A) (A) (A) (A) (A) (A) (A) (A)
                 (A) (A) (A) (A) (A) (A) (A) (A) (A) (A) (A) (A)
                 (A) (A) (A) (A) (A) (A) (A) (A) (A) (A) (A) (A)
                 (A) (A) (A) (A) (A) (A) (A) (A) (A) (A) (A) (A)
                 (A) (A) (A) (A) (A) (A) (A) (A) (A) (A) (A) (A)
                 (A) (A) (A) (A) (A) (A) (A) (A) (A) (A) (A) (A)
                 (A) (A) (A) (A) (A) (A) (A) (A) (A) (A) (A) (A)
                 (A) (A) (A) (A) (A) (A) (A) (A) (A) (A) (A) (A)
                 (A) (A) (A) (A) (A) (A) (A) (A) (A) (A) (A) (A)
                 (A) (A) (A) (A) (A) (A) (A) (A) (A) (A) (A) (A)
                 (A) (A) (A)
 The electronic state is 1-A.
 Alpha  occ. eigenvalues --  -88.89728 -77.23144 -19.17790 -19.16244 -19.15785
 Alpha  occ. eigenvalues --  -19.15285 -19.12498 -19.12337 -14.41033 -10.27283
 Alpha  occ. eigenvalues --  -10.25822 -10.23918  -7.95816  -6.67999  -5.92196
 Alpha  occ. eigenvalues --   -5.91886  -5.91252  -4.84421  -4.84223  -4.84105
 Alpha  occ. eigenvalues --   -1.05958  -1.03074  -1.02403  -1.01374  -1.00928
 Alpha  occ. eigenvalues --   -0.95916  -0.95579  -0.82218  -0.75750  -0.69083
 Alpha  occ. eigenvalues --   -0.63096  -0.58100  -0.56838  -0.55449  -0.55144
 Alpha  occ. eigenvalues --   -0.53627  -0.52875  -0.50276  -0.49215  -0.47115
 Alpha  occ. eigenvalues --   -0.44479  -0.43454  -0.42630  -0.41920  -0.40765
 Alpha  occ. eigenvalues --   -0.40079  -0.39722  -0.38357  -0.36676  -0.35699
 Alpha  occ. eigenvalues --   -0.33582  -0.32933  -0.32586  -0.31845  -0.31499
 Alpha  occ. eigenvalues --   -0.30602  -0.29674  -0.29373  -0.26082
 Alpha virt. eigenvalues --   -0.03301  -0.02454  -0.01426  -0.01118  -0.00229
 Alpha virt. eigenvalues --    0.00959   0.01288   0.01726   0.02306   0.02891
 Alpha virt. eigenvalues --    0.04027   0.04429   0.04893   0.05351   0.05508
 Alpha virt. eigenvalues --    0.06155   0.06495   0.07011   0.07134   0.07422
 Alpha virt. eigenvalues --    0.07824   0.08341   0.08401   0.08811   0.09596
 Alpha virt. eigenvalues --    0.10002   0.10461   0.10502   0.10965   0.11085
 Alpha virt. eigenvalues --    0.11235   0.11904   0.12073   0.12321   0.13060
 Alpha virt. eigenvalues --    0.13271   0.13878   0.14267   0.15023   0.15405
 Alpha virt. eigenvalues --    0.15827   0.16281   0.17189   0.17496   0.17656
 Alpha virt. eigenvalues --    0.18207   0.18793   0.19044   0.19535   0.19726
 Alpha virt. eigenvalues --    0.20101   0.20126   0.20650   0.21120   0.21364
 Alpha virt. eigenvalues --    0.21519   0.22471   0.22693   0.22986   0.23139
 Alpha virt. eigenvalues --    0.23532   0.24402   0.25004   0.25612   0.26123
 Alpha virt. eigenvalues --    0.26485   0.26781   0.27301   0.27856   0.28204
 Alpha virt. eigenvalues --    0.29273   0.29363   0.29837   0.30320   0.30827
 Alpha virt. eigenvalues --    0.31111   0.31236   0.31958   0.32656   0.32712
 Alpha virt. eigenvalues --    0.33139   0.33540   0.34195   0.34281   0.34848
 Alpha virt. eigenvalues --    0.35375   0.35962   0.36613   0.36874   0.37623
 Alpha virt. eigenvalues --    0.38042   0.39177   0.39439   0.39928   0.41324
 Alpha virt. eigenvalues --    0.41664   0.41941   0.42859   0.43152   0.44119
 Alpha virt. eigenvalues --    0.44223   0.44842   0.45439   0.45995   0.46211
 Alpha virt. eigenvalues --    0.46685   0.47552   0.48031   0.48576   0.49018
 Alpha virt. eigenvalues --    0.49536   0.49730   0.51326   0.51621   0.51906
 Alpha virt. eigenvalues --    0.52782   0.52998   0.54256   0.54538   0.55307
 Alpha virt. eigenvalues --    0.55603   0.56340   0.56608   0.57053   0.58024
 Alpha virt. eigenvalues --    0.58700   0.59420   0.60366   0.61242   0.61524
 Alpha virt. eigenvalues --    0.61943   0.63102   0.63694   0.64287   0.65206
 Alpha virt. eigenvalues --    0.65511   0.66532   0.67478   0.68964   0.69083
 Alpha virt. eigenvalues --    0.69828   0.70710   0.71313   0.72256   0.72619
 Alpha virt. eigenvalues --    0.73894   0.74751   0.75292   0.76040   0.76856
 Alpha virt. eigenvalues --    0.77862   0.78624   0.79573   0.80400   0.81093
 Alpha virt. eigenvalues --    0.81725   0.82284   0.82908   0.83321   0.84456
 Alpha virt. eigenvalues --    0.85453   0.86409   0.86769   0.88897   0.89190
 Alpha virt. eigenvalues --    0.89830   0.90865   0.92847   0.93656   0.94555
 Alpha virt. eigenvalues --    0.94917   0.95487   0.96240   0.97179   0.97771
 Alpha virt. eigenvalues --    0.99014   0.99844   1.00082   1.01265   1.02870
 Alpha virt. eigenvalues --    1.03199   1.03878   1.04232   1.04540   1.05304
 Alpha virt. eigenvalues --    1.07052   1.07509   1.08826   1.09758   1.10678
 Alpha virt. eigenvalues --    1.10823   1.11359   1.12418   1.13689   1.13956
 Alpha virt. eigenvalues --    1.14580   1.15325   1.16905   1.17514   1.18500
 Alpha virt. eigenvalues --    1.19162   1.20052   1.20525   1.22340   1.23550
 Alpha virt. eigenvalues --    1.24565   1.25282   1.25768   1.26687   1.28611
 Alpha virt. eigenvalues --    1.29953   1.30409   1.32229   1.35569   1.36058
 Alpha virt. eigenvalues --    1.37150   1.38324   1.39819   1.41232   1.42934
 Alpha virt. eigenvalues --    1.44057   1.44601   1.45840   1.47118   1.48062
 Alpha virt. eigenvalues --    1.48816   1.50325   1.51566   1.52764   1.54689
 Alpha virt. eigenvalues --    1.56837   1.58493   1.60249   1.60803   1.63917
 Alpha virt. eigenvalues --    1.64605   1.65377   1.66486   1.66937   1.69522
 Alpha virt. eigenvalues --    1.71289   1.73062   1.73712   1.75166   1.76682
 Alpha virt. eigenvalues --    1.77182   1.78836   1.79489   1.80880   1.82173
 Alpha virt. eigenvalues --    1.82836   1.84823   1.86513   1.87874   1.88456
 Alpha virt. eigenvalues --    1.89127   1.90205   1.93047   1.94656   1.95778
 Alpha virt. eigenvalues --    1.96947   1.97621   2.00241   2.00665   2.01588
 Alpha virt. eigenvalues --    2.04730   2.05329   2.06434   2.09065   2.09803
 Alpha virt. eigenvalues --    2.11898   2.12518   2.14130   2.15099   2.17171
 Alpha virt. eigenvalues --    2.18969   2.19775   2.20923   2.22082   2.24149
 Alpha virt. eigenvalues --    2.25667   2.27034   2.28187   2.29929   2.30383
 Alpha virt. eigenvalues --    2.33839   2.35000   2.38114   2.39952   2.40966
 Alpha virt. eigenvalues --    2.43485   2.45730   2.48405   2.50047   2.51999
 Alpha virt. eigenvalues --    2.52731   2.56470   2.57087   2.59881   2.61445
 Alpha virt. eigenvalues --    2.62430   2.64608   2.65239   2.66870   2.68918
 Alpha virt. eigenvalues --    2.70896   2.71260   2.72232   2.77164   2.80247
 Alpha virt. eigenvalues --    2.82882   2.84278   2.87660   2.88639   2.95201
 Alpha virt. eigenvalues --    2.99314   3.10412   3.15654   3.29310   3.35493
 Alpha virt. eigenvalues --    3.36081   3.36629   3.37183   3.38725   3.40400
 Alpha virt. eigenvalues --    3.40850   3.41687   3.42725   3.43084   3.45290
 Alpha virt. eigenvalues --    3.46922   3.47254   3.48121   3.50106   3.51231
 Alpha virt. eigenvalues --    3.52702   3.53560   3.54682   3.55937   3.59021
 Alpha virt. eigenvalues --    3.61245   3.63598   3.65269   3.72844   3.79549
 Alpha virt. eigenvalues --    3.81649   3.83471   4.00435   4.02064   4.02871
 Alpha virt. eigenvalues --    4.05001
          Condensed to atoms (all electrons):
              1          2          3          4          5          6
     1  P   14.038302  -0.254846  -0.221757  -0.118496  -0.070892   0.146118
     2  O   -0.254846   9.107080   0.057311  -0.124928   0.017616  -0.000759
     3  O   -0.221757   0.057311   8.999771  -0.036462   0.029400   0.034558
     4  N   -0.118496  -0.124928  -0.036462   7.758536   0.285250  -0.020112
     5  H   -0.070892   0.017616   0.029400   0.285250   1.012694   0.001319
     6  S    0.146118  -0.000759   0.034558  -0.020112   0.001319  16.164505
     7  C   -0.250691   0.114012   0.048959   0.015192  -0.065972  -0.074869
     8  H    0.001681   0.020834   0.002838  -0.300041  -0.021768   0.004012
     9  H    0.070863  -0.004496  -0.006388  -0.161858   0.001979  -0.040415
    10  C    0.008849   0.036362   0.016014  -0.071026   0.000498   0.214396
    11  H   -0.080202   0.045635   0.003482  -0.061679  -0.014743  -0.219484
    12  O   -0.026794   0.001320  -0.030143  -0.048097   0.024780   0.004565
    13  H   -0.000650   0.002467   0.087151  -0.000613   0.000500  -0.007056
    14  H   -0.003884  -0.000623  -0.011413   0.025773  -0.000775  -0.000335
    15  O    0.011141   0.003919   0.001222  -0.142597  -0.051741  -0.000869
    16  H    0.005729  -0.003260  -0.000129   0.017259   0.002429  -0.000346
    17  H   -0.018633  -0.001120   0.004482   0.022562  -0.008948   0.001982
    18  H   -0.046006   0.022596  -0.038205   0.202973  -0.203272   0.001924
    19  O   -0.016017  -0.021078   0.001077   0.024594  -0.009030   0.000310
    20  H    0.004357   0.098003  -0.001906  -0.001006   0.012874  -0.001211
    21  H    0.000588  -0.018016  -0.001393  -0.003391  -0.001774  -0.000137
    22  C   -0.185356  -0.116341   0.012014  -0.161522  -0.037917   0.015285
    23  H    0.102141   0.059093  -0.004789   0.010295  -0.019769  -0.024162
    24  H    0.085812  -0.006720  -0.000536   0.042865   0.013902  -0.162197
    25  O    0.012915  -0.000019  -0.000415   0.060029   0.004047   0.020732
    26  H    0.002489  -0.002376  -0.000035  -0.017748  -0.000326  -0.002370
              7          8          9         10         11         12
     1  P   -0.250691   0.001681   0.070863   0.008849  -0.080202  -0.026794
     2  O    0.114012   0.020834  -0.004496   0.036362   0.045635   0.001320
     3  O    0.048959   0.002838  -0.006388   0.016014   0.003482  -0.030143
     4  N    0.015192  -0.300041  -0.161858  -0.071026  -0.061679  -0.048097
     5  H   -0.065972  -0.021768   0.001979   0.000498  -0.014743   0.024780
     6  S   -0.074869   0.004012  -0.040415   0.214396  -0.219484   0.004565
     7  C    6.407367  -0.261559  -0.045813   0.046025   0.159586   0.021074
     8  H   -0.261559   2.580988  -0.779154   0.055153   0.012147  -0.004735
     9  H   -0.045813  -0.779154   2.888538  -0.002660   0.017701   0.006469
    10  C    0.046025   0.055153  -0.002660   5.797654  -0.046229   0.002628
    11  H    0.159586   0.012147   0.017701  -0.046229   1.901534  -0.000048
    12  O    0.021074  -0.004735   0.006469   0.002628  -0.000048   7.775639
    13  H   -0.001697   0.000350   0.002884  -0.001358   0.000255   0.280663
    14  H   -0.008105  -0.000355  -0.001822  -0.001504  -0.000299   0.330107
    15  O   -0.037859   0.042731  -0.013364  -0.000694   0.000002   0.001684
    16  H    0.011309  -0.004293   0.002314   0.000336   0.000152  -0.000205
    17  H   -0.002493   0.002295  -0.004219  -0.000694   0.001089  -0.000003
    18  H   -0.038003   0.013233  -0.071137   0.018159   0.005816  -0.019780
    19  O   -0.002510  -0.000833  -0.000457   0.000227   0.000251   0.000026
    20  H   -0.001468   0.000609   0.000331   0.006056  -0.000556  -0.000040
    21  H   -0.000948  -0.000508   0.000383  -0.001600  -0.000239  -0.000061
    22  C   -1.253529   0.290428  -0.547258  -1.202394   0.265437  -0.010461
    23  H    0.008195  -0.117325   0.151975   0.443149  -0.191866   0.000266
    24  H   -0.007550   0.008956  -0.026522   0.277979  -0.413603   0.000133
    25  O    0.022900  -0.082564   0.069240   0.102599  -0.024293   0.000352
    26  H   -0.065520   0.003442  -0.001472  -0.132057   0.019869  -0.000097
             13         14         15         16         17         18
     1  P   -0.000650  -0.003884   0.011141   0.005729  -0.018633  -0.046006
     2  O    0.002467  -0.000623   0.003919  -0.003260  -0.001120   0.022596
     3  O    0.087151  -0.011413   0.001222  -0.000129   0.004482  -0.038205
     4  N   -0.000613   0.025773  -0.142597   0.017259   0.022562   0.202973
     5  H    0.000500  -0.000775  -0.051741   0.002429  -0.008948  -0.203272
     6  S   -0.007056  -0.000335  -0.000869  -0.000346   0.001982   0.001924
     7  C   -0.001697  -0.008105  -0.037859   0.011309  -0.002493  -0.038003
     8  H    0.000350  -0.000355   0.042731  -0.004293   0.002295   0.013233
     9  H    0.002884  -0.001822  -0.013364   0.002314  -0.004219  -0.071137
    10  C   -0.001358  -0.001504  -0.000694   0.000336  -0.000694   0.018159
    11  H    0.000255  -0.000299   0.000002   0.000152   0.001089   0.005816
    12  O    0.280663   0.330107   0.001684  -0.000205  -0.000003  -0.019780
    13  H    0.598793  -0.111699  -0.000046   0.000020  -0.000268  -0.002468
    14  H   -0.111699   0.661143  -0.000137  -0.000040  -0.000050   0.010680
    15  O   -0.000046  -0.000137   7.865309   0.328689   0.317145   0.017254
    16  H    0.000020  -0.000040   0.328689   0.706218  -0.139186  -0.001670
    17  H   -0.000268  -0.000050   0.317145  -0.139186   0.600029   0.003490
    18  H   -0.002468   0.010680   0.017254  -0.001670   0.003490   1.105642
    19  O   -0.000135  -0.000031  -0.059615   0.000762   0.025215   0.002497
    20  H   -0.000343  -0.000002  -0.007883  -0.001297   0.000118  -0.001918
    21  H   -0.000010   0.000013   0.002989  -0.000371  -0.000116  -0.000192
    22  C   -0.003526   0.004102   0.026678  -0.010298   0.005261  -0.036240
    23  H    0.001191  -0.000173  -0.016251   0.000893  -0.007851  -0.000476
    24  H    0.000083   0.000064   0.000133  -0.000192  -0.000369  -0.005714
    25  O    0.000366  -0.000105  -0.002054  -0.000187  -0.000607  -0.003249
    26  H   -0.000021   0.000026   0.001117  -0.000155   0.000395  -0.000413
             19         20         21         22         23         24
     1  P   -0.016017   0.004357   0.000588  -0.185356   0.102141   0.085812
     2  O   -0.021078   0.098003  -0.018016  -0.116341   0.059093  -0.006720
     3  O    0.001077  -0.001906  -0.001393   0.012014  -0.004789  -0.000536
     4  N    0.024594  -0.001006  -0.003391  -0.161522   0.010295   0.042865
     5  H   -0.009030   0.012874  -0.001774  -0.037917  -0.019769   0.013902
     6  S    0.000310  -0.001211  -0.000137   0.015285  -0.024162  -0.162197
     7  C   -0.002510  -0.001468  -0.000948  -1.253529   0.008195  -0.007550
     8  H   -0.000833   0.000609  -0.000508   0.290428  -0.117325   0.008956
     9  H   -0.000457   0.000331   0.000383  -0.547258   0.151975  -0.026522
    10  C    0.000227   0.006056  -0.001600  -1.202394   0.443149   0.277979
    11  H    0.000251  -0.000556  -0.000239   0.265437  -0.191866  -0.413603
    12  O    0.000026  -0.000040  -0.000061  -0.010461   0.000266   0.000133
    13  H   -0.000135  -0.000343  -0.000010  -0.003526   0.001191   0.000083
    14  H   -0.000031  -0.000002   0.000013   0.004102  -0.000173   0.000064
    15  O   -0.059615  -0.007883   0.002989   0.026678  -0.016251   0.000133
    16  H    0.000762  -0.001297  -0.000371  -0.010298   0.000893  -0.000192
    17  H    0.025215   0.000118  -0.000116   0.005261  -0.007851  -0.000369
    18  H    0.002497  -0.001918  -0.000192  -0.036240  -0.000476  -0.005714
    19  O    7.823910   0.214079   0.355583  -0.000416  -0.000110   0.000005
    20  H    0.214079   0.600074  -0.114506  -0.008269  -0.007938   0.000244
    21  H    0.355583  -0.114506   0.644046   0.003692   0.001790  -0.000023
    22  C   -0.000416  -0.008269   0.003692   9.796351  -1.844837  -0.185302
    23  H   -0.000110  -0.007938   0.001790  -1.844837   3.129850   0.084834
    24  H    0.000005   0.000244  -0.000023  -0.185302   0.084834   1.569918
    25  O   -0.000170  -0.000233  -0.000009  -0.531278   0.103692  -0.007809
    26  H   -0.000237  -0.000220   0.000108   0.352652  -0.177035  -0.009032
             25         26
     1  P    0.012915   0.002489
     2  O   -0.000019  -0.002376
     3  O   -0.000415  -0.000035
     4  N    0.060029  -0.017748
     5  H    0.004047  -0.000326
     6  S    0.020732  -0.002370
     7  C    0.022900  -0.065520
     8  H   -0.082564   0.003442
     9  H    0.069240  -0.001472
    10  C    0.102599  -0.132057
    11  H   -0.024293   0.019869
    12  O    0.000352  -0.000097
    13  H    0.000366  -0.000021
    14  H   -0.000105   0.000026
    15  O   -0.002054   0.001117
    16  H   -0.000187  -0.000155
    17  H   -0.000607   0.000395
    18  H   -0.003249  -0.000413
    19  O   -0.000170  -0.000237
    20  H   -0.000233  -0.000220
    21  H   -0.000009   0.000108
    22  C   -0.531278   0.352652
    23  H    0.103692  -0.177035
    24  H   -0.007809  -0.009032
    25  O    8.548291   0.253036
    26  H    0.253036   0.698431
 Mulliken atomic charges:
              1
     1  P    1.803241
     2  O   -1.031667
     3  O   -0.944710
     4  N   -0.195752
     5  H    0.099638
     6  S   -0.055384
     7  C    1.263965
     8  H   -0.466563
     9  H   -0.505642
    10  C    0.434134
    11  H   -0.379716
    12  O   -0.309243
    13  H    0.155167
    14  H    0.109445
    15  O   -0.286902
    16  H    0.085518
    17  H    0.200494
    18  H    0.064479
    19  O   -0.337898
    20  H    0.212050
    21  H    0.134101
    22  C    1.363043
    23  H   -0.684784
    24  H   -0.259358
    25  O   -0.545205
    26  H    0.077549
 Sum of Mulliken charges=   0.00000
 Atomic charges with hydrogens summed into heavy atoms:
              1
     1  P    1.803241
     2  O   -1.031667
     3  O   -0.944710
     4  N   -0.031635
     5  H    0.000000
     6  S   -0.055384
     7  C    0.291760
     8  H    0.000000
     9  H    0.000000
    10  C   -0.204940
    11  H    0.000000
    12  O   -0.044630
    13  H    0.000000
    14  H    0.000000
    15  O   -0.000890
    16  H    0.000000
    17  H    0.000000
    18  H    0.000000
    19  O    0.008253
    20  H    0.000000
    21  H    0.000000
    22  C    0.678260
    23  H    0.000000
    24  H    0.000000
    25  O   -0.467656
    26  H    0.000000
 Sum of Mulliken charges=   0.00000
 Electronic spatial extent (au):  <R**2>=  3092.4537
 Charge=     0.0000 electrons
 Dipole moment (field-independent basis, Debye):
    X=    -1.7894    Y=    -2.5964    Z=     2.9679  Tot=     4.3303
 Quadrupole moment (field-independent basis, Debye-Ang):
   XX=   -88.8134   YY=   -82.6138   ZZ=   -90.4476
   XY=    -4.1626   XZ=     0.1418   YZ=     1.2032
 Traceless Quadrupole moment (field-independent basis, Debye-Ang):
   XX=    -1.5218   YY=     4.6778   ZZ=    -3.1560
   XY=    -4.1626   XZ=     0.1418   YZ=     1.2032
 Octapole moment (field-independent basis, Debye-Ang**2):
  XXX=    50.8778  YYY=   -20.4556  ZZZ=    16.0872  XYY=    -1.8666
  XXY=   -10.1126  XXZ=   -25.7744  XZZ=     7.5815  YZZ=    -2.0351
  YYZ=    36.9388  XYZ=   -20.6928
 Hexadecapole moment (field-independent basis, Debye-Ang**3):
 XXXX= -1576.7985 YYYY= -1046.8667 ZZZZ=  -816.9341 XXXY=   -83.4585
 XXXZ=   -57.8547 YYYX=    23.0989 YYYZ=    45.8643 ZZZX=   -28.0264
 ZZZY=    10.8460 XXYY=  -534.6916 XXZZ=  -413.5845 YYZZ=  -320.6282
 XXYZ=     3.5067 YYXZ=    52.8656 ZZXY=   -32.5043
 N-N= 1.108072959111D+03 E-N=-5.452117914132D+03  KE= 1.362660084020D+03
 No NMR shielding tensors so no spin-rotation constants.
 Leave Link  601 at Sun Aug  3 14:52:55 2008, MaxMem=  536870912 cpu:      12.9
 (Enter /usr/local/Chem-Apps/g03_d01/g03/l701.exe)
 Compute integral first derivatives.
 ... and contract with generalized density number  0.
 Leave Link  701 at Sun Aug  3 14:52:56 2008, MaxMem=  536870912 cpu:       7.5
 (Enter /usr/local/Chem-Apps/g03_d01/g03/l702.exe)
 L702 exits ... SP integral derivatives will be done elsewhere.
 Leave Link  702 at Sun Aug  3 14:52:56 2008, MaxMem=  536870912 cpu:       0.0
 (Enter /usr/local/Chem-Apps/g03_d01/g03/l703.exe)
 Compute integral first derivatives, UseDBF=F.
 Integral derivatives from FoFDir, PRISM(SPDF).
 Symmetry not used in FoFDir.
 MinBra= 0 MaxBra= 2 Meth= 1.
 IRaf=       0 NMat=   1 IRICut=       1 DoRegI=T DoRafI=F ISym2E= 0 JSym2E=0.
 Leave Link  703 at Sun Aug  3 14:53:46 2008, MaxMem=  536870912 cpu:     758.9
 (Enter /usr/local/Chem-Apps/g03_d01/g03/l716.exe)
 Dipole        =-7.04023441D-01-1.02149395D+00 1.16766000D+00
 ***** Axes restored to original set *****
 -------------------------------------------------------------------
 Center     Atomic                   Forces (Hartrees/Bohr)
 Number     Number              X              Y              Z
 -------------------------------------------------------------------
    1         15           0.001693884   -0.001064586    0.000435697
    2          8          -0.000966209    0.000955128   -0.000633261
    3          8          -0.000796304    0.000129720    0.000112514
    4          7           0.000534392   -0.000539767    0.001937640
    5          1           0.000032653   -0.001126664   -0.000067979
    6         16           0.001093118    0.000277122   -0.000795521
    7          6          -0.006616544   -0.001900570   -0.001152556
    8          1           0.003042812    0.000583691   -0.001671561
    9          1          -0.000089633   -0.000416936    0.000419588
   10          6          -0.007145272   -0.002426172   -0.001172950
   11          1          -0.000067781    0.000112798   -0.000109097
   12          8          -0.000335708   -0.000160048    0.000377751
   13          1           0.000147146    0.000023175   -0.000201477
   14          1           0.000024126    0.000026568   -0.000088465
   15          8           0.000290744    0.000647819   -0.000040097
   16          1          -0.000286581    0.000061732    0.000115543
   17          1          -0.000119396   -0.000098371   -0.000003080
   18          1           0.000077688    0.000609382   -0.000812749
   19          8           0.000025174    0.000551424   -0.000084185
   20          1           0.000134843   -0.000814896    0.000099137
   21          1           0.000018454   -0.000052990    0.000050201
   22          6           0.009823266    0.014892272   -0.004735444
   23          1          -0.014826765   -0.003153269   -0.001722750
   24          1           0.002816587    0.002269752    0.002220500
   25          8           0.011176370   -0.010642502    0.008352657
   26          1           0.000318932    0.001256188   -0.000830055
 -------------------------------------------------------------------
 Cartesian Forces:  Max     0.014892272 RMS     0.003650132
 Leave Link  716 at Sun Aug  3 14:53:46 2008, MaxMem=  536870912 cpu:       0.0
 (Enter /usr/local/Chem-Apps/g03_d01/g03/l103.exe)

 GradGradGradGradGradGradGradGradGradGradGradGradGradGradGradGradGradGrad
 Berny optimization.
 Internal  Forces:  Max     0.010745902 RMS     0.001768807
 Search for a local minimum.
 Step number   1 out of a maximum of 156
 All quantities printed in internal units (Hartrees-Bohrs-Radians)
 Swaping is turned off.
 Second derivative matrix not updated -- first step.
     Eigenvalues ---    0.00354   0.00465   0.00582   0.00673   0.00814
     Eigenvalues ---    0.00889   0.00939   0.01295   0.01629   0.02430
     Eigenvalues ---    0.03066   0.03368   0.03968   0.04275   0.04669
     Eigenvalues ---    0.04783   0.05228   0.05510   0.05687   0.05921
     Eigenvalues ---    0.06007   0.06310   0.06468   0.06760   0.07275
     Eigenvalues ---    0.07446   0.07915   0.07954   0.07968   0.08868
     Eigenvalues ---    0.09337   0.09886   0.10365   0.10863   0.11257
     Eigenvalues ---    0.11696   0.11955   0.13066   0.13379   0.15073
     Eigenvalues ---    0.16000   0.16302   0.17737   0.18048   0.19024
     Eigenvalues ---    0.19065   0.20351   0.20615   0.21115   0.21909
     Eigenvalues ---    0.22799   0.23103   0.27902   0.28694   0.30740
     Eigenvalues ---    0.34178   0.34257   0.34335   0.34349   0.34525
     Eigenvalues ---    0.39710   0.40131   0.40989   0.48023   0.48784
     Eigenvalues ---    0.49131   0.54637   0.54728   0.54875   0.55473
     Eigenvalues ---    0.67983   0.684171000.000001000.000001000.00000
     Eigenvalues --- 1000.000001000.000001000.000001000.000001000.00000
     Eigenvalues --- 1000.000001000.000001000.000001000.000001000.00000
     Eigenvalues --- 1000.000001000.000001000.000001000.000001000.00000
     Eigenvalues --- 1000.000001000.000001000.000001000.000001000.00000
     Eigenvalues --- 1000.000001000.000001000.000001000.000001000.00000
     Eigenvalues --- 1000.000001000.000001000.000001000.000001000.00000
     Eigenvalues --- 1000.000001000.000001000.000001000.000001000.00000
     Eigenvalues --- 1000.000001000.000001000.000001000.000001000.00000
     Eigenvalues --- 1000.000001000.000001000.000001000.000001000.00000
     Eigenvalues --- 1000.000001000.000001000.000001000.000001000.00000
     Eigenvalues --- 1000.000001000.000001000.000001000.000001000.00000
     Eigenvalues --- 1000.000001000.000001000.000001000.000001000.00000
     Eigenvalues --- 1000.000001000.000001000.000001000.000001000.00000
     Eigenvalues --- 1000.000001000.000001000.000001000.000001000.00000
     Eigenvalues --- 1000.000001000.000001000.000001000.00000
 Quadratic step=3.804D-01 exceeds max=3.000D-01 adjusted using Lamda=-8.916D-03.
 Angle between NR and scaled steps=  14.34 degrees.
 Angle between quadratic step and forces=  30.18 degrees.
 Linear search not attempted -- option 19 set.
 Iteration  1 RMS(Cart)=  0.03600284 RMS(Int)=  0.00107932
 Iteration  2 RMS(Cart)=  0.00132622 RMS(Int)=  0.00027903
 Iteration  3 RMS(Cart)=  0.00000155 RMS(Int)=  0.00027903
 Iteration  4 RMS(Cart)=  0.00000000 RMS(Int)=  0.00027903
 Variable       Old X    -DE/DX   Delta X   Delta X   Delta X     New X
                                 (Linear)    (Quad)   (Total)
    R1        2.87657   0.00056   0.00000   0.00091   0.00091   2.87747
    R2        2.86865   0.00061   0.00000   0.00093   0.00091   2.86956
    R3        3.60051   0.00068   0.00000  -0.00068  -0.00087   3.59963
    R4        4.01817   0.00006   0.00000  -0.00109  -0.00116   4.01701
    R5        3.29495  -0.00042   0.00000  -0.00449  -0.00449   3.29046
    R6        3.44836  -0.00003   0.00000  -0.00271  -0.00273   3.44563
    R7        1.97649  -0.00044   0.00000  -0.00125  -0.00126   1.97523
    R8        2.84391  -0.00060   0.00000  -0.00220  -0.00215   2.84176
    R9        1.96295  -0.00061   0.00000  -0.00130  -0.00128   1.96167
   R10        3.30882   0.00068   0.00000   0.00795   0.00795   3.31677
   R11        3.53593  -0.00112   0.00000  -0.00479  -0.00489   3.53104
   R12        2.06769   0.00048   0.00000   0.00136   0.00136   2.06905
   R13        2.06899   0.00054   0.00000   0.00155   0.00155   2.07054
   R14        2.89351  -0.00024   0.00000   0.00232   0.00261   2.89612
   R15        2.06746   0.00012   0.00000   0.00033   0.00033   2.06779
   R16        2.89324  -0.00039   0.00000   0.00139   0.00152   2.89476
   R17        2.07030   0.00080   0.00000   0.00227   0.00227   2.07257
   R18        1.85964   0.00017   0.00000  -0.00006  -0.00007   1.85957
   R19        1.82075  -0.00006   0.00000  -0.00011  -0.00011   1.82063
   R20        3.48699   0.00034   0.00000   0.00479   0.00481   3.49180
   R21        1.81943  -0.00009   0.00000  -0.00015  -0.00015   1.81928
   R22        1.87381   0.00011   0.00000   0.00014   0.00015   1.87396
   R23        3.23647   0.00008   0.00000   0.00065   0.00066   3.23713
   R24        1.86580   0.00042   0.00000   0.00095   0.00095   1.86675
   R25        1.82156  -0.00003   0.00000  -0.00006  -0.00006   1.82150
   R26        2.06453   0.00268   0.00000   0.00758   0.00758   2.07211
   R27        2.70231   0.01075   0.00000   0.02566   0.02566   2.72797
   R28        1.81414   0.00153   0.00000   0.00271   0.00271   1.81685
    A1        2.19936  -0.00058   0.00000  -0.00500  -0.00501   2.19436
    A2        1.80394   0.00030   0.00000   0.00239   0.00234   1.80628
    A3        1.94780   0.00019   0.00000   0.00294   0.00313   1.95093
    A4        1.81673  -0.00015   0.00000   0.00066   0.00078   1.81751
    A5        1.91645   0.00028   0.00000   0.00184   0.00174   1.91818
    A6        1.69876   0.00008   0.00000  -0.00260  -0.00280   1.69596
    A7        2.21375  -0.00018   0.00000   0.00084   0.00083   2.21458
    A8        1.97551  -0.00017   0.00000   0.00098   0.00091   1.97642
    A9        1.86706  -0.00006   0.00000   0.00035   0.00043   1.86750
   A10        2.04618  -0.00062   0.00000  -0.00343  -0.00345   2.04273
   A11        1.83944   0.00017   0.00000  -0.00160  -0.00167   1.83777
   A12        1.89772   0.00051   0.00000   0.00633   0.00626   1.90398
   A13        1.88108  -0.00022   0.00000  -0.00138  -0.00141   1.87967
   A14        1.92537   0.00020   0.00000  -0.00042  -0.00034   1.92503
   A15        1.72589  -0.00019   0.00000   0.00020   0.00025   1.72614
   A16        1.86921   0.00204   0.00000   0.01553   0.01563   1.88484
   A17        1.88814  -0.00098   0.00000  -0.00359  -0.00378   1.88437
   A18        1.93423   0.00113   0.00000   0.01804   0.01845   1.95268
   A19        1.89857   0.00041   0.00000   0.00040   0.00032   1.89888
   A20        1.93822  -0.00282   0.00000  -0.03192  -0.03228   1.90595
   A21        1.93346   0.00030   0.00000   0.00233   0.00226   1.93572
   A22        1.90406   0.00014   0.00000   0.00139   0.00107   1.90514
   A23        1.99113   0.00101   0.00000   0.01877   0.01923   2.01036
   A24        1.79846   0.00189   0.00000   0.01533   0.01551   1.81396
   A25        1.92292   0.00011   0.00000   0.00069   0.00039   1.92330
   A26        1.90245   0.00113   0.00000   0.00223   0.00199   1.90445
   A27        1.93988  -0.00414   0.00000  -0.03789  -0.03807   1.90180
   A28        1.85353  -0.00007   0.00000  -0.00062  -0.00064   1.85289
   A29        1.49490   0.00002   0.00000  -0.00108  -0.00108   1.49382
   A30        2.29967  -0.00005   0.00000  -0.00057  -0.00057   2.29909
   A31        2.64312   0.00020   0.00000   0.00040   0.00040   2.64352
   A32        2.32227   0.00023   0.00000   0.00317   0.00317   2.32544
   A33        1.85792  -0.00002   0.00000  -0.00007  -0.00009   1.85782
   A34        1.86152  -0.00009   0.00000   0.00170   0.00170   1.86322
   A35        2.88166   0.00021   0.00000   0.00010   0.00009   2.88175
   A36        2.71692  -0.00010   0.00000   0.00161   0.00165   2.71857
   A37        1.69506   0.00003   0.00000   0.00025   0.00026   1.69532
   A38        2.09645  -0.00011   0.00000  -0.00077  -0.00076   2.09569
   A39        1.84499  -0.00007   0.00000  -0.00063  -0.00063   1.84436
   A40        2.88059   0.00005   0.00000   0.00051   0.00049   2.88108
   A41        2.00830  -0.00064   0.00000  -0.02361  -0.02444   1.98386
   A42        1.91624  -0.00226   0.00000  -0.02696  -0.02838   1.88786
   A43        1.90746  -0.00078   0.00000  -0.01985  -0.02110   1.88636
   A44        1.92547  -0.00128   0.00000  -0.02403  -0.02546   1.90001
   A45        1.89539  -0.00221   0.00000  -0.02432  -0.02538   1.87001
   A46        1.79912   0.00813   0.00000   0.13637   0.13719   1.93631
[...]
 Alpha  occ. eigenvalues --   -0.43783  -0.42771  -0.41462  -0.40754  -0.40395
 Alpha  occ. eigenvalues --   -0.39403  -0.39155  -0.38321  -0.36782  -0.34810
 Alpha  occ. eigenvalues --   -0.33661  -0.32709  -0.32355  -0.32132  -0.31486
 Alpha  occ. eigenvalues --   -0.30903  -0.30094  -0.29305  -0.26218
 Alpha virt. eigenvalues --   -0.01713  -0.01059   0.00186   0.00941   0.01411
 Alpha virt. eigenvalues --    0.02862   0.03272   0.03680   0.04236   0.04438
 Alpha virt. eigenvalues --    0.05248   0.05671   0.06900   0.07626   0.07997
 Alpha virt. eigenvalues --    0.08113   0.08523   0.08805   0.09281   0.09881
 Alpha virt. eigenvalues --    0.10646   0.11315   0.12106   0.12588   0.12966
 Alpha virt. eigenvalues --    0.13161   0.13984   0.14679   0.14846   0.15516
 Alpha virt. eigenvalues --    0.16161   0.16640   0.17095   0.17220   0.17618
 Alpha virt. eigenvalues --    0.17777   0.18416   0.19040   0.19482   0.19801
 Alpha virt. eigenvalues --    0.20186   0.21181   0.21372   0.21820   0.22240
 Alpha virt. eigenvalues --    0.22743   0.22925   0.23368   0.24046   0.24258
 Alpha virt. eigenvalues --    0.24694   0.25261   0.25983   0.26251   0.26968
 Alpha virt. eigenvalues --    0.27643   0.27865   0.28542   0.29118   0.30347
 Alpha virt. eigenvalues --    0.30851   0.31848   0.32023   0.32396   0.32855
 Alpha virt. eigenvalues --    0.33990   0.34813   0.35139   0.35911   0.36958
 Alpha virt. eigenvalues --    0.37654   0.37751   0.38659   0.39815   0.40200
 Alpha virt. eigenvalues --    0.41400   0.42170   0.42715   0.42973   0.43581
 Alpha virt. eigenvalues --    0.44975   0.46638   0.48195   0.48872   0.50054
 Alpha virt. eigenvalues --    0.50717   0.51178   0.52923   0.53573   0.54969
 Alpha virt. eigenvalues --    0.55822   0.57061   0.57974   0.58521   0.58933
 Alpha virt. eigenvalues --    0.59856   0.61546   0.62432   0.63430   0.64738
 Alpha virt. eigenvalues --    0.65434   0.66537   0.67280   0.68725   0.69041
 Alpha virt. eigenvalues --    0.70353   0.71296   0.72093   0.73570   0.74268
 Alpha virt. eigenvalues --    0.74756   0.76251   0.76960   0.77904   0.78940
 Alpha virt. eigenvalues --    0.80108   0.80452   0.81522   0.82147   0.82251
 Alpha virt. eigenvalues --    0.82959   0.84397   0.84908   0.85896   0.86270
 Alpha virt. eigenvalues --    0.86582   0.87866   0.88755   0.90463   0.90771
 Alpha virt. eigenvalues --    0.91296   0.91666   0.92195   0.92922   0.93585
 Alpha virt. eigenvalues --    0.93897   0.94596   0.95290   0.95377   0.96729
 Alpha virt. eigenvalues --    0.97027   0.98242   0.99109   0.99314   1.00867
 Alpha virt. eigenvalues --    1.01090   1.02364   1.03460   1.03986   1.04686
 Alpha virt. eigenvalues --    1.06034   1.07469   1.07748   1.08485   1.09487
 Alpha virt. eigenvalues --    1.10336   1.11967   1.13212   1.13407   1.14404
 Alpha virt. eigenvalues --    1.16320   1.16470   1.16907   1.18512   1.18901
 Alpha virt. eigenvalues --    1.19767   1.20583   1.21480   1.22381   1.22772
 Alpha virt. eigenvalues --    1.23962   1.24906   1.27102   1.27922   1.29269
 Alpha virt. eigenvalues --    1.29843   1.31409   1.32262   1.33074   1.35580
 Alpha virt. eigenvalues --    1.36809   1.37206   1.38522   1.39733   1.42200
 Alpha virt. eigenvalues --    1.42679   1.43003   1.45864   1.47438   1.48080
 Alpha virt. eigenvalues --    1.48702   1.49521   1.50578   1.52192   1.54058
 Alpha virt. eigenvalues --    1.55649   1.56684   1.58977   1.60482   1.62515
 Alpha virt. eigenvalues --    1.64056   1.65250   1.67291   1.68205   1.68452
 Alpha virt. eigenvalues --    1.70390   1.71558   1.72520   1.73506   1.73658
 Alpha virt. eigenvalues --    1.76167   1.76358   1.78394   1.78639   1.80089
 Alpha virt. eigenvalues --    1.82407   1.83258   1.84715   1.85837   1.86334
 Alpha virt. eigenvalues --    1.87796   1.88621   1.89079   1.90536   1.91765
 Alpha virt. eigenvalues --    1.92998   1.94989   1.96488   1.97415   1.98792
 Alpha virt. eigenvalues --    1.99557   2.00064   2.02956   2.03646   2.05297
 Alpha virt. eigenvalues --    2.07123   2.10637   2.11229   2.12221   2.13572
 Alpha virt. eigenvalues --    2.15801   2.17395   2.18359   2.19817   2.20178
 Alpha virt. eigenvalues --    2.23086   2.23585   2.26691   2.26940   2.28279
 Alpha virt. eigenvalues --    2.29988   2.30416   2.32849   2.34841   2.35886
 Alpha virt. eigenvalues --    2.36874   2.38855   2.40750   2.41337   2.43897
 Alpha virt. eigenvalues --    2.44592   2.46212   2.47852   2.49198   2.50610
 Alpha virt. eigenvalues --    2.52133   2.54838   2.54937   2.55369   2.58937
 Alpha virt. eigenvalues --    2.60501   2.62394   2.66347   2.67407   2.70379
 Alpha virt. eigenvalues --    2.71467   2.73507   2.76416   2.78679   2.81142
 Alpha virt. eigenvalues --    2.83316   3.00135   3.07573   3.15312   3.17059
 Alpha virt. eigenvalues --    3.18797   3.20756   3.21810   3.24636   3.26091
 Alpha virt. eigenvalues --    3.29906   3.32436   3.33460   3.34584   3.35409
 Alpha virt. eigenvalues --    3.36389   3.37140   3.39038   3.42069   3.43379
 Alpha virt. eigenvalues --    3.45062   3.47733   3.48958   3.49602   3.53874
 Alpha virt. eigenvalues --    3.54844   3.57203   3.58713   3.59901   3.61418
 Alpha virt. eigenvalues --    3.66166   3.69494   3.77032   3.80098   3.82550
 Alpha virt. eigenvalues --    3.84954   3.90810   3.92946   4.91359   4.93867
 Alpha virt. eigenvalues --    5.07172   5.29166   5.36154   5.37730   5.42311
 Alpha virt. eigenvalues --    5.45589   5.47978   5.51889   5.52545   5.53849
 Alpha virt. eigenvalues --    5.56563   5.58879   5.61609   5.66312   5.68423
 Alpha virt. eigenvalues --    5.75662   5.78568   6.78834   6.81397   6.84906
 Alpha virt. eigenvalues --    6.87735   6.92528   6.94284   7.00318   8.79242
 Alpha virt. eigenvalues --    9.00725   9.01079  10.09615  20.72946  20.74225
 Alpha virt. eigenvalues --   20.83024  20.96314  20.99034  35.09158  35.27538
 Alpha virt. eigenvalues --   35.28468  36.85512  36.93683  36.98357  36.99058
 Alpha virt. eigenvalues --   37.00817  37.02529  37.02709  37.05083  37.07329
 Alpha virt. eigenvalues --   37.09706  37.10259  37.15190  37.19574  37.28554
 Alpha virt. eigenvalues --   59.07871
          Condensed to atoms (all electrons):
              1          2          3          4          5          6
     1  P   13.249295   0.078341   0.048431   0.098828  -0.019023   0.284572
     2  O    0.078341   8.934981  -0.056325   0.004104  -0.000600  -0.016361
     3  O    0.048431  -0.056325   8.950817  -0.008879   0.001290  -0.011957
     4  N    0.098828   0.004104  -0.008879   6.757418   0.345251   0.021222
     5  H   -0.019023  -0.000600   0.001290   0.345251   0.308372   0.000599
     6  S    0.284572  -0.016361  -0.011957   0.021222   0.000599  15.788672
     7  C   -0.050769   0.021210   0.005544   0.182400  -0.017952  -0.031108
     8  H    0.002766  -0.000903  -0.000043  -0.033771  -0.005412   0.001544
     9  H    0.003349  -0.001626   0.000421  -0.016248   0.001599   0.006537
    10  C   -0.023004  -0.012265   0.002175  -0.022879   0.002229   0.143594
    11  H   -0.007070  -0.000125   0.000172  -0.003981   0.000012  -0.035069
    12  O    0.007297  -0.002713  -0.046664  -0.060992   0.000176  -0.004201
    13  H    0.008295   0.000064   0.016629  -0.001143   0.000165  -0.002323
    14  H    0.003567  -0.000027   0.004282   0.006231   0.000000  -0.001064
    15  O    0.006981   0.005589  -0.001023  -0.086285   0.021955  -0.001695
    16  H   -0.001721  -0.000520   0.000007   0.008958  -0.001873   0.000031
    17  H    0.000334  -0.000887   0.000335  -0.000037  -0.000896  -0.000057
    18  H   -0.011682   0.000632  -0.009855   0.386664  -0.005673   0.000303
    19  O   -0.011192  -0.044418  -0.000668   0.006110   0.000356   0.000054
    20  H    0.007653   0.017857  -0.001035  -0.001953   0.000153  -0.000412
    21  H    0.002458   0.007913  -0.000162  -0.001372   0.000001  -0.000045
    22  C   -0.087554   0.007330   0.002387  -0.028904   0.002447  -0.088515
    23  H   -0.004303  -0.006938   0.000612   0.003515   0.000399   0.002187
    24  H    0.008010  -0.001125  -0.000318   0.001252  -0.000001  -0.050581
    25  O    0.009022   0.002941  -0.000187  -0.000704  -0.000382   0.009727
    26  H   -0.000752   0.000164   0.000007   0.000431   0.000015  -0.000538
              7          8          9         10         11         12
     1  P   -0.050769   0.002766   0.003349  -0.023004  -0.007070   0.007297
     2  O    0.021210  -0.000903  -0.001626  -0.012265  -0.000125  -0.002713
     3  O    0.005544  -0.000043   0.000421   0.002175   0.000172  -0.046664
     4  N    0.182400  -0.033771  -0.016248  -0.022879  -0.003981  -0.060992
     5  H   -0.017952  -0.005412   0.001599   0.002229   0.000012   0.000176
     6  S   -0.031108   0.001544   0.006537   0.143594  -0.035069  -0.004201
     7  C    5.221804   0.365707   0.370141  -0.150811   0.009039  -0.002519
     8  H    0.365707   0.439017  -0.010938   0.006509  -0.000008  -0.000159
     9  H    0.370141  -0.010938   0.436348   0.006142  -0.000042   0.001821
    10  C   -0.150811   0.006509   0.006142   5.591589   0.385503   0.001609
    11  H    0.009039  -0.000008  -0.000042   0.385503   0.457366  -0.000009
    12  O   -0.002519  -0.000159   0.001821   0.001609  -0.000009   8.119544
    13  H    0.002107  -0.000002   0.000002  -0.000129   0.000000   0.299079
    14  H   -0.000156   0.000001  -0.000030  -0.000201   0.000000   0.312303
    15  O    0.000029   0.004306  -0.000929  -0.002660   0.000008  -0.000370
    16  H    0.000990  -0.000026   0.000001   0.000100   0.000000  -0.000063
    17  H    0.001081  -0.000039   0.000001   0.000155   0.000000   0.000006
    18  H   -0.042264   0.002048  -0.005240   0.000225   0.000001   0.021945
    19  O   -0.002600   0.000058  -0.000005  -0.001120   0.000033   0.000136
    20  H   -0.000215   0.000000   0.000000   0.000218  -0.000004  -0.000004
    21  H   -0.000037   0.000000   0.000000   0.000078   0.000000   0.000001
    22  C    0.346508   0.014293  -0.019321   0.261895   0.014858  -0.010612
    23  H   -0.041632   0.000059   0.002232  -0.001548  -0.007398   0.000027
    24  H   -0.001305  -0.000090   0.001200   0.393908  -0.008249  -0.000004
    25  O   -0.004684  -0.004210   0.004424   0.005708   0.000905   0.000060
    26  H   -0.002364   0.000582   0.000072   0.001387  -0.000039   0.000002
             13         14         15         16         17         18
     1  P    0.008295   0.003567   0.006981  -0.001721   0.000334  -0.011682
     2  O    0.000064  -0.000027   0.005589  -0.000520  -0.000887   0.000632
     3  O    0.016629   0.004282  -0.001023   0.000007   0.000335  -0.009855
     4  N   -0.001143   0.006231  -0.086285   0.008958  -0.000037   0.386664
     5  H    0.000165   0.000000   0.021955  -0.001873  -0.000896  -0.005673
     6  S   -0.002323  -0.001064  -0.001695   0.000031  -0.000057   0.000303
     7  C    0.002107  -0.000156   0.000029   0.000990   0.001081  -0.042264
     8  H   -0.000002   0.000001   0.004306  -0.000026  -0.000039   0.002048
     9  H    0.000002  -0.000030  -0.000929   0.000001   0.000001  -0.005240
    10  C   -0.000129  -0.000201  -0.002660   0.000100   0.000155   0.000225
    11  H    0.000000   0.000000   0.000008   0.000000   0.000000   0.000001
    12  O    0.299079   0.312303  -0.000370  -0.000063   0.000006   0.021945
    13  H    0.352949  -0.013612  -0.000045   0.000000   0.000000  -0.004307
    14  H   -0.013612   0.387552  -0.000015   0.000000   0.000000  -0.000708
    15  O   -0.000045  -0.000015   8.178052   0.318529   0.304130   0.002105
    16  H    0.000000   0.000000   0.318529   0.386494  -0.015462  -0.000041
    17  H    0.000000   0.000000   0.304130  -0.015462   0.326554   0.000005
    18  H   -0.004307  -0.000708   0.002105  -0.000041   0.000005   0.332376
    19  O   -0.000012  -0.000001  -0.070317   0.004391   0.024423  -0.000053
    20  H    0.000001   0.000000   0.002615   0.000004  -0.002075   0.000001
    21  H    0.000000   0.000000   0.004074  -0.000084  -0.000660   0.000000
    22  C    0.000469   0.000494  -0.020794   0.001474   0.002024   0.002895
    23  H    0.000000   0.000000   0.000624  -0.000005   0.000024  -0.000146
    24  H    0.000000   0.000000   0.000001   0.000000   0.000000  -0.000003
    25  O    0.000002   0.000000   0.002729  -0.000029  -0.000075  -0.000311
    26  H    0.000000   0.000000  -0.000011   0.000000   0.000000   0.000000
             19         20         21         22         23         24
     1  P   -0.011192   0.007653   0.002458  -0.087554  -0.004303   0.008010
     2  O   -0.044418   0.017857   0.007913   0.007330  -0.006938  -0.001125
     3  O   -0.000668  -0.001035  -0.000162   0.002387   0.000612  -0.000318
     4  N    0.006110  -0.001953  -0.001372  -0.028904   0.003515   0.001252
     5  H    0.000356   0.000153   0.000001   0.002447   0.000399  -0.000001
     6  S    0.000054  -0.000412  -0.000045  -0.088515   0.002187  -0.050581
     7  C   -0.002600  -0.000215  -0.000037   0.346508  -0.041632  -0.001305
     8  H    0.000058   0.000000   0.000000   0.014293   0.000059  -0.000090
     9  H   -0.000005   0.000000   0.000000  -0.019321   0.002232   0.001200
    10  C   -0.001120   0.000218   0.000078   0.261895  -0.001548   0.393908
    11  H    0.000033  -0.000004   0.000000   0.014858  -0.007398  -0.008249
    12  O    0.000136  -0.000004   0.000001  -0.010612   0.000027  -0.000004
    13  H   -0.000012   0.000001   0.000000   0.000469   0.000000   0.000000
    14  H   -0.000001   0.000000   0.000000   0.000494   0.000000   0.000000
    15  O   -0.070317   0.002615   0.004074  -0.020794   0.000624   0.000001
    16  H    0.004391   0.000004  -0.000084   0.001474  -0.000005   0.000000
    17  H    0.024423  -0.002075  -0.000660   0.002024   0.000024   0.000000
    18  H   -0.000053   0.000001   0.000000   0.002895  -0.000146  -0.000003
    19  O    8.143252   0.296422   0.316246   0.000731   0.000122  -0.000005
    20  H    0.296422   0.319003  -0.016824   0.000486   0.000103   0.000000
    21  H    0.316246  -0.016824   0.390630  -0.000006  -0.000003   0.000000
    22  C    0.000731   0.000486  -0.000006   4.895499   0.394775   0.005456
    23  H    0.000122   0.000103  -0.000003   0.394775   0.491695   0.001696
    24  H   -0.000005   0.000000   0.000000   0.005456   0.001696   0.431823
    25  O   -0.000007  -0.000033   0.000000  -0.176988  -0.021261  -0.008191
    26  H    0.000007   0.000000   0.000000  -0.005849  -0.009874   0.000052
             25         26
     1  P    0.009022  -0.000752
     2  O    0.002941   0.000164
     3  O   -0.000187   0.000007
     4  N   -0.000704   0.000431
     5  H   -0.000382   0.000015
     6  S    0.009727  -0.000538
     7  C   -0.004684  -0.002364
     8  H   -0.004210   0.000582
     9  H    0.004424   0.000072
    10  C    0.005708   0.001387
    11  H    0.000905  -0.000039
    12  O    0.000060   0.000002
    13  H    0.000002   0.000000
    14  H    0.000000   0.000000
    15  O    0.002729  -0.000011
    16  H   -0.000029   0.000000
    17  H   -0.000075   0.000000
    18  H   -0.000311   0.000000
    19  O   -0.000007   0.000007
    20  H   -0.000033   0.000000
    21  H    0.000000   0.000000
    22  C   -0.176988  -0.005849
    23  H   -0.021261  -0.009874
    24  H   -0.008191   0.000052
    25  O    8.647485   0.315248
    26  H    0.315248   0.399526
 Mulliken atomic charges:
              1
     1  P    1.397869
     2  O   -0.936291
     3  O   -0.895993
     4  N   -0.555235
     5  H    0.366791
     6  S   -0.015115
     7  C   -0.178142
     8  H    0.218712
     9  H    0.220088
    10  C   -0.588406
    11  H    0.194097
    12  O   -0.635696
    13  H    0.341809
    14  H    0.301383
    15  O   -0.667583
    16  H    0.298844
    17  H    0.361117
    18  H    0.331082
    19  O   -0.661942
    20  H    0.378040
    21  H    0.297789
    22  C    0.484522
    23  H    0.195038
    24  H    0.226473
    25  O   -0.781188
    26  H    0.301936
 Sum of Mulliken charges=   0.00000
 Atomic charges with hydrogens summed into heavy atoms:
              1
     1  P    1.397869
     2  O   -0.936291
     3  O   -0.895993
     4  N    0.142638
     5  H    0.000000
     6  S   -0.015115
     7  C    0.260659
     8  H    0.000000
     9  H    0.000000
    10  C   -0.167836
    11  H    0.000000
    12  O    0.007496
    13  H    0.000000
    14  H    0.000000
    15  O   -0.007622
    16  H    0.000000
    17  H    0.000000
    18  H    0.000000
    19  O    0.013887
    20  H    0.000000
    21  H    0.000000
    22  C    0.679560
    23  H    0.000000
    24  H    0.000000
    25  O   -0.479253
    26  H    0.000000
 Sum of Mulliken charges=   0.00000
 Electronic spatial extent (au):  <R**2>=  3093.2008
 Charge=     0.0000 electrons
 Dipole moment (field-independent basis, Debye):
    X=    -0.5547    Y=    -2.1785    Z=     5.3613  Tot=     5.8135
 Quadrupole moment (field-independent basis, Debye-Ang):
   XX=   -82.2018   YY=   -89.8491   ZZ=   -87.0615
   XY=    -4.8549   XZ=     0.9725   YZ=     2.0177
 Traceless Quadrupole moment (field-independent basis, Debye-Ang):
   XX=     4.1690   YY=    -3.4783   ZZ=    -0.6907
   XY=    -4.8549   XZ=     0.9725   YZ=     2.0177
 Octapole moment (field-independent basis, Debye-Ang**2):
  XXX=    93.3114  YYY=     8.8289  ZZZ=    27.8201  XYY=   -15.8498
  XXY=   -21.2664  XXZ=   -11.1459  XZZ=    14.1043  YZZ=    -6.4145
  YYZ=    43.8715  XYZ=    -8.5213
 Hexadecapole moment (field-independent basis, Debye-Ang**3):
 XXXX= -1409.5112 YYYY= -1178.0195 ZZZZ=  -813.3924 XXXY=  -171.6081
 XXXZ=    -7.3242 YYYX=    71.9206 YYYZ=    63.3592 ZZZX=   -21.7404
 ZZZY=    18.0730 XXYY=  -559.6418 XXZZ=  -357.2079 YYZZ=  -320.4401
 XXYZ=    -2.8822 YYXZ=    -0.9215 ZZXY=   -27.1492
 N-N= 1.107630924631D+03 E-N=-5.452388733488D+03  KE= 1.362916701449D+03
 Calculating spin-rotation constants.
 Leave Link  601 at Sun Aug  3 18:22:59 2008, MaxMem= 1073741824 cpu:     157.3
 (Enter /usr/local/Chem-Apps/g03_d01/g03/l9999.exe)
 1\1\ SGI ALTIX 4700 1.6GHZ/9MB-MAGELLAN\SP\RB3LYP\Gen\C3H14N1O6P1S1\IK
 1\03-Aug-2008\0\\#p nmr=giao b3lyp/Gen scf=tight integral=(grid=ultraf
 ine) scrf=(pcm,solvent=water,read) guess=read geom=checkpoint\\Molecul
 e 15, NMR.\\0,1\P,0,-2.1636891487,-0.574452338,-0.5642058768\O,0,-1.91
 07157245,0.5121386311,-1.600007031\O,0,-3.5247232506,-1.0086259771,-0.
 0469750986\N,0,-1.2693534527,0.0776059688,0.9874218476\H,0,-1.42484211
 62,1.1111428457,1.022003748\S,0,-0.9266122283,-2.2681361161,-0.8967401
 493\C,0,0.199717256,-0.2009018213,1.0892903543\H,0,0.6355526106,0.5514
 576701,1.7573938395\H,0,0.335155134,-1.1909296629,1.5373368608\C,0,0.6
 792399837,-1.3693822714,-1.1614332972\H,0,0.7704756318,-1.101954036,-2
 .2180619664\O,0,-3.2294149904,-1.107335675,2.6523366497\H,0,-3.5905041
 682,-1.2222487806,1.7425984806\H,0,-3.326206936,-1.9607844499,3.088892
 9665\O,0,-1.4468930751,2.8764858317,1.0452996173\H,0,-1.9122422245,3.3
 820782197,1.7205915883\H,0,-1.8465993859,3.138522548,0.176301647\H,0,-
 1.7760965316,-0.3401991378,1.7903417577\O,0,-2.3895187984,3.1552311016
 ,-1.4546864086\H,0,-2.3023808097,2.1858795987,-1.629562639\H,0,-3.2874
 720157,3.3885712753,-1.7147413755\C,0,0.8992400225,-0.1288991685,-0.27
 82158232\H,0,0.5387791115,0.7600471388,-0.8129147157\H,0,1.4507983476,
 -2.1080422804,-0.9114505958\O,0,2.3159373175,-0.0494864465,-0.08155749
 75\H,0,2.5606071013,0.8682993223,0.0881843772\\Version=IA64L-G03RevD.0
 1\State=1-A\HF=-1368.7504485\RMSD=3.096e-09\Thermal=0.\Dipole=1.249883
 ,0.6875317,1.7878592\PG=C01 [X(C3H14N1O6P1S1)]\\@


 LIFE CAN ONLY BE UNDERSTOOD BACKWARD, BUT MUST
 BE LIVED FORWARD. -- KIRKEGAARD
 Job cpu time:  0 days  0 hours 11 minutes 47.3 seconds.
 File lengths (MBytes):  RWF=    240 Int=      0 D2E=      0 Chk=     23 Scr=      1
 Normal termination of Gaussian 03 at Sun Aug  3 18:22:59 2008.
