 Entering Link 1 = C:\G03W\l1.exe PID=      3488.
  
 Copyright (c) 1988,1990,1992,1993,1995,1998,2003,2004, Gaussian, Inc.
                  All Rights Reserved.
  
 This is the Gaussian(R) 03 program.  It is based on the
 the Gaussian(R) 98 system (copyright 1998, Gaussian, Inc.),
 the Gaussian(R) 94 system (copyright 1995, Gaussian, Inc.),
 the Gaussian 92(TM) system (copyright 1992, Gaussian, Inc.),
 the Gaussian 90(TM) system (copyright 1990, Gaussian, Inc.),
 the Gaussian 88(TM) system (copyright 1988, Gaussian, Inc.),
 the Gaussian 86(TM) system (copyright 1986, Carnegie Mellon
 University), and the Gaussian 82(TM) system (copyright 1983,
 Carnegie Mellon University). Gaussian is a federally registered
 trademark of Gaussian, Inc.
  
 This software contains proprietary and confidential information,
 including trade secrets, belonging to Gaussian, Inc.
  
 This software is provided under written license and may be
 used, copied, transmitted, or stored only in accord with that
 written license.
  
 The following legend is applicable only to US Government
 contracts under FAR:
  
                    RESTRICTED RIGHTS LEGEND
  
 Use, reproduction and disclosure by the US Government is
 subject to restrictions as set forth in subparagraphs (a)
 and (c) of the Commercial Computer Software - Restricted
 Rights clause in FAR 52.227-19.
  
 Gaussian, Inc.
 340 Quinnipiac St., Bldg. 40, Wallingford CT 06492
  
  
 ---------------------------------------------------------------
 Warning -- This program may not be used in any manner that
 competes with the business of Gaussian, Inc. or will provide
 assistance to any competitor of Gaussian, Inc.  The licensee
 of this program is prohibited from giving any competitor of
 Gaussian, Inc. access to this program.  By using this program,
 the user acknowledges that Gaussian, Inc. is engaged in the
 business of creating and licensing software in the field of
 computational chemistry and represents and warrants to the
 licensee that it is not a competitor of Gaussian, Inc. and that
 it will not use this program in any manner prohibited above.
 ---------------------------------------------------------------
  

 Cite this work as:
 Gaussian 03, Revision C.02,
 M. J. Frisch, G. W. Trucks, H. B. Schlegel, G. E. Scuseria, 
 M. A. Robb, J. R. Cheeseman, J. A. Montgomery, Jr., T. Vreven, 
 K. N. Kudin, J. C. Burant, J. M. Millam, S. S. Iyengar, J. Tomasi, 
 V. Barone, B. Mennucci, M. Cossi, G. Scalmani, N. Rega, 
 G. A. Petersson, H. Nakatsuji, M. Hada, M. Ehara, K. Toyota, 
 R. Fukuda, J. Hasegawa, M. Ishida, T. Nakajima, Y. Honda, O. Kitao, 
 H. Nakai, M. Klene, X. Li, J. E. Knox, H. P. Hratchian, J. B. Cross, 
 C. Adamo, J. Jaramillo, R. Gomperts, R. E. Stratmann, O. Yazyev, 
 A. J. Austin, R. Cammi, C. Pomelli, J. W. Ochterski, P. Y. Ayala, 
 K. Morokuma, G. A. Voth, P. Salvador, J. J. Dannenberg, 
 V. G. Zakrzewski, S. Dapprich, A. D. Daniels, M. C. Strain, 
 O. Farkas, D. K. Malick, A. D. Rabuck, K. Raghavachari, 
 J. B. Foresman, J. V. Ortiz, Q. Cui, A. G. Baboul, S. Clifford, 
 J. Cioslowski, B. B. Stefanov, G. Liu, A. Liashenko, P. Piskorz, 
 I. Komaromi, R. L. Martin, D. J. Fox, T. Keith, M. A. Al-Laham, 
 C. Y. Peng, A. Nanayakkara, M. Challacombe, P. M. W. Gill, 
 B. Johnson, W. Chen, M. W. Wong, C. Gonzalez, and J. A. Pople, 
 Gaussian, Inc., Wallingford CT, 2004.
 
 ******************************************
 Gaussian 03:  IA32W-G03RevC.02 12-Jun-2004
                06-Apr-2009 
 ******************************************
 %Mem=1600MB
 %chk=E:\Work in progress\Results\Ab initio computations\1. Old stuff\CRT group\c
 hrysene\chrysene_hyperfines.chk
 Default route:  MaxDisk=2000MB
 ----------------------------------------------------------------------
 #p opt=(tight,gdiis) ub3lyp/EPR-II guess=mix geom=connectivity scf=(ti
 ght,idsymm)
 ----------------------------------------------------------------------
 1/7=10,14=-1,18=20,19=11,26=3,38=1,57=2/1,3;
 2/9=110,17=6,18=5,40=1/2;
 3/5=21,11=2,16=1,25=1,30=1,74=-5/1,2,3;
 4/7=2,9=2,13=1/1;
 5/5=2,17=100,32=2,38=5/2;
 6/7=2,8=2,9=2,10=2,28=1/1;
 7//1,2,3,16;
 1/14=-1,18=20,19=11/3(1);
 99//99;
 2/9=110/2;
 3/5=21,11=2,16=1,25=1,30=1,74=-5/1,2,3;
 4/5=5,7=2,9=2,16=3/1;
 5/5=2,17=100,32=2,38=5/2;
 7//1,2,3,16;
 1/14=-1,18=20,19=11/3(-5);
 2/9=110/2;
 6/7=2,8=2,9=2,10=2,19=2,28=1/1;
 99/9=1/99;
 Leave Link    1 at Mon Apr 06 00:46:59 2009, MaxMem=  209715200 cpu:       1.0
 (Enter C:\G03W\l101.exe)
 -------------------
 Title Card Required
 -------------------
 Symbolic Z-matrix:
 Charge =  1 Multiplicity = 2
 C                     0.11541  -4.5468    0. 
 C                     1.17206  -3.69495   0. 
 C                     0.95521  -2.31211   0. 
 C                    -0.35096  -1.8206    0. 
 C                    -1.42866  -2.71325   0. 
 C                    -1.1992   -4.05062   0. 
 C                     2.04084  -1.42342   0. 
 C                    -0.56925  -0.44002   0. 
 C                     0.56925   0.44002   0. 
 C                     1.82874  -0.0812    0. 
 C                     0.35096   1.8206    0. 
 C                    -0.95521   2.31211   0. 
 C                    -2.04084   1.42342   0. 
 C                    -1.82874   0.0812    0. 
 H                     3.04072  -1.8044    0. 
 H                     0.28461  -5.60333   0. 
 H                     2.17027  -4.08025   0. 
 H                    -2.43211  -2.34178   0. 
 H                    -2.02449  -4.73164   0. 
 H                     2.66271   0.58916   0. 
 H                    -3.04072   1.8044    0. 
 H                    -2.66271  -0.58916   0. 
 C                     1.42866   2.71325   0. 
 H                     2.43211   2.34178   0. 
 C                    -1.17206   3.69495   0. 
 H                    -2.17027   4.08025   0. 
 C                    -0.11541   4.5468    0. 
 H                    -0.28461   5.60333   0. 
 C                     1.1992    4.05062   0. 
 H                     2.02449   4.73164   0. 
 
                    Isotopes and Nuclear Properties:

  Atom         1           2           3           4           5           6           7           8           9          10
 IAtWgt=          12          12          12          12          12          12          12          12          12          12
 AtmWgt=  12.0000000  12.0000000  12.0000000  12.0000000  12.0000000  12.0000000  12.0000000  12.0000000  12.0000000  12.0000000
 IAtSpn=           0           0           0           0           0           0           0           0           0           0
 AtZEff=   0.0000000   0.0000000   0.0000000   0.0000000   0.0000000   0.0000000   0.0000000   0.0000000   0.0000000   0.0000000
 AtQMom=   0.0000000   0.0000000   0.0000000   0.0000000   0.0000000   0.0000000   0.0000000   0.0000000   0.0000000   0.0000000
 AtGFac=   0.0000000   0.0000000   0.0000000   0.0000000   0.0000000   0.0000000   0.0000000   0.0000000   0.0000000   0.0000000

  Atom        11          12          13          14          15          16          17          18          19          20
 IAtWgt=          12          12          12          12           1           1           1           1           1           1
 AtmWgt=  12.0000000  12.0000000  12.0000000  12.0000000   1.0078250   1.0078250   1.0078250   1.0078250   1.0078250   1.0078250
 IAtSpn=           0           0           0           0           1           1           1           1           1           1
 AtZEff=   0.0000000   0.0000000   0.0000000   0.0000000   0.0000000   0.0000000   0.0000000   0.0000000   0.0000000   0.0000000
 AtQMom=   0.0000000   0.0000000   0.0000000   0.0000000   0.0000000   0.0000000   0.0000000   0.0000000   0.0000000   0.0000000
 AtGFac=   0.0000000   0.0000000   0.0000000   0.0000000   2.7928460   2.7928460   2.7928460   2.7928460   2.7928460   2.7928460

  Atom        21          22          23          24          25          26          27          28          29          30
 IAtWgt=           1           1          12           1          12           1          12           1          12           1
 AtmWgt=   1.0078250   1.0078250  12.0000000   1.0078250  12.0000000   1.0078250  12.0000000   1.0078250  12.0000000   1.0078250
 IAtSpn=           1           1           0           1           0           1           0           1           0           1
 AtZEff=   0.0000000   0.0000000   0.0000000   0.0000000   0.0000000   0.0000000   0.0000000   0.0000000   0.0000000   0.0000000
 AtQMom=   0.0000000   0.0000000   0.0000000   0.0000000   0.0000000   0.0000000   0.0000000   0.0000000   0.0000000   0.0000000
 AtGFac=   2.7928460   2.7928460   0.0000000   2.7928460   0.0000000   2.7928460   0.0000000   2.7928460   0.0000000   2.7928460
 Leave Link  101 at Mon Apr 06 00:47:05 2009, MaxMem=  209715200 cpu:       1.0
 (Enter C:\G03W\l103.exe)

 GradGradGradGradGradGradGradGradGradGradGradGradGradGradGradGradGradGrad
 Berny optimization.
 Initialization pass.
                           ----------------------------
                           !    Initial Parameters    !
                           ! (Angstroms and Degrees)  !
 --------------------------                            --------------------------
 ! Name  Definition              Value          Derivative Info.                !
 --------------------------------------------------------------------------------
 ! R1    R(1,2)                  1.3573         estimate D2E/DX2                !
 ! R2    R(1,6)                  1.4051         estimate D2E/DX2                !
 ! R3    R(1,16)                 1.07           estimate D2E/DX2                !
 ! R4    R(2,3)                  1.3997         estimate D2E/DX2                !
 ! R5    R(2,17)                 1.07           estimate D2E/DX2                !
 ! R6    R(3,4)                  1.3956         estimate D2E/DX2                !
 ! R7    R(3,7)                  1.403          estimate D2E/DX2                !
 ! R8    R(4,5)                  1.3994         estimate D2E/DX2                !
 ! R9    R(4,8)                  1.3977         estimate D2E/DX2                !
 ! R10   R(5,6)                  1.3569         estimate D2E/DX2                !
 ! R11   R(5,18)                 1.07           estimate D2E/DX2                !
 ! R12   R(6,19)                 1.07           estimate D2E/DX2                !
 ! R13   R(7,10)                 1.3589         estimate D2E/DX2                !
 ! R14   R(7,15)                 1.07           estimate D2E/DX2                !
 ! R15   R(8,9)                  1.439          estimate D2E/DX2                !
 ! R16   R(8,14)                 1.3631         estimate D2E/DX2                !
 ! R17   R(9,10)                 1.3631         estimate D2E/DX2                !
 ! R18   R(9,11)                 1.3977         estimate D2E/DX2                !
 ! R19   R(10,20)                1.07           estimate D2E/DX2                !
 ! R20   R(11,12)                1.3956         estimate D2E/DX2                !
 ! R21   R(11,23)                1.3994         estimate D2E/DX2                !
 ! R22   R(12,13)                1.403          estimate D2E/DX2                !
 ! R23   R(12,25)                1.3997         estimate D2E/DX2                !
 ! R24   R(13,14)                1.3589         estimate D2E/DX2                !
 ! R25   R(13,21)                1.07           estimate D2E/DX2                !
 ! R26   R(14,22)                1.07           estimate D2E/DX2                !
 ! R27   R(23,24)                1.07           estimate D2E/DX2                !
 ! R28   R(23,29)                1.3569         estimate D2E/DX2                !
 ! R29   R(25,26)                1.07           estimate D2E/DX2                !
 ! R30   R(25,27)                1.3573         estimate D2E/DX2                !
 ! R31   R(27,28)                1.07           estimate D2E/DX2                !
 ! R32   R(27,29)                1.4051         estimate D2E/DX2                !
 ! R33   R(29,30)                1.07           estimate D2E/DX2                !
 ! A1    A(2,1,6)              120.4466         estimate D2E/DX2                !
 ! A2    A(2,1,16)             119.7767         estimate D2E/DX2                !
 ! A3    A(6,1,16)             119.7767         estimate D2E/DX2                !
 ! A4    A(1,2,3)              119.9632         estimate D2E/DX2                !
 ! A5    A(1,2,17)             120.0184         estimate D2E/DX2                !
 ! A6    A(3,2,17)             120.0184         estimate D2E/DX2                !
 ! A7    A(2,3,4)              119.5331         estimate D2E/DX2                !
 ! A8    A(2,3,7)              120.3915         estimate D2E/DX2                !
 ! A9    A(4,3,7)              120.0754         estimate D2E/DX2                !
 ! A10   A(3,4,5)              119.7441         estimate D2E/DX2                !
 ! A11   A(3,4,8)              119.6059         estimate D2E/DX2                !
 ! A12   A(5,4,8)              120.65           estimate D2E/DX2                !
 ! A13   A(4,5,6)              119.8989         estimate D2E/DX2                !
 ! A14   A(4,5,18)             120.0506         estimate D2E/DX2                !
 ! A15   A(6,5,18)             120.0506         estimate D2E/DX2                !
 ! A16   A(1,6,5)              120.4141         estimate D2E/DX2                !
 ! A17   A(1,6,19)             119.7929         estimate D2E/DX2                !
 ! A18   A(5,6,19)             119.7929         estimate D2E/DX2                !
 ! A19   A(3,7,10)             120.3239         estimate D2E/DX2                !
 ! A20   A(3,7,15)             119.8381         estimate D2E/DX2                !
 ! A21   A(10,7,15)            119.8381         estimate D2E/DX2                !
 ! A22   A(4,8,9)              118.7185         estimate D2E/DX2                !
 ! A23   A(4,8,14)             121.4662         estimate D2E/DX2                !
 ! A24   A(9,8,14)             119.8152         estimate D2E/DX2                !
 ! A25   A(8,9,10)             119.8152         estimate D2E/DX2                !
 ! A26   A(8,9,11)             118.7185         estimate D2E/DX2                !
 ! A27   A(10,9,11)            121.4662         estimate D2E/DX2                !
 ! A28   A(7,10,9)             121.4611         estimate D2E/DX2                !
 ! A29   A(7,10,20)            119.8137         estimate D2E/DX2                !
 ! A30   A(9,10,20)            118.7252         estimate D2E/DX2                !
 ! A31   A(9,11,12)            119.6059         estimate D2E/DX2                !
 ! A32   A(9,11,23)            120.65           estimate D2E/DX2                !
 ! A33   A(12,11,23)           119.7441         estimate D2E/DX2                !
 ! A34   A(11,12,13)           120.0754         estimate D2E/DX2                !
 ! A35   A(11,12,25)           119.5331         estimate D2E/DX2                !
 ! A36   A(13,12,25)           120.3915         estimate D2E/DX2                !
 ! A37   A(12,13,14)           120.3239         estimate D2E/DX2                !
 ! A38   A(12,13,21)           119.8381         estimate D2E/DX2                !
 ! A39   A(14,13,21)           119.8381         estimate D2E/DX2                !
 ! A40   A(8,14,13)            121.4611         estimate D2E/DX2                !
 ! A41   A(8,14,22)            118.7252         estimate D2E/DX2                !
 ! A42   A(13,14,22)           119.8137         estimate D2E/DX2                !
 ! A43   A(11,23,24)           120.0506         estimate D2E/DX2                !
 ! A44   A(11,23,29)           119.8989         estimate D2E/DX2                !
 ! A45   A(24,23,29)           120.0506         estimate D2E/DX2                !
 ! A46   A(12,25,26)           120.0184         estimate D2E/DX2                !
 ! A47   A(12,25,27)           119.9632         estimate D2E/DX2                !
 ! A48   A(26,25,27)           120.0184         estimate D2E/DX2                !
 ! A49   A(25,27,28)           119.7767         estimate D2E/DX2                !
 ! A50   A(25,27,29)           120.4466         estimate D2E/DX2                !
 ! A51   A(28,27,29)           119.7767         estimate D2E/DX2                !
 ! A52   A(23,29,27)           120.4141         estimate D2E/DX2                !
 ! A53   A(23,29,30)           119.7929         estimate D2E/DX2                !
 ! A54   A(27,29,30)           119.7929         estimate D2E/DX2                !
 ! D1    D(6,1,2,3)              0.0            estimate D2E/DX2                !
 ! D2    D(6,1,2,17)           180.0            estimate D2E/DX2                !
 ! D3    D(16,1,2,3)           180.0            estimate D2E/DX2                !
 ! D4    D(16,1,2,17)            0.0            estimate D2E/DX2                !
 ! D5    D(2,1,6,5)              0.0            estimate D2E/DX2                !
 ! D6    D(2,1,6,19)           180.0            estimate D2E/DX2                !
 ! D7    D(16,1,6,5)           180.0            estimate D2E/DX2                !
 ! D8    D(16,1,6,19)            0.0            estimate D2E/DX2                !
 ! D9    D(1,2,3,4)              0.0            estimate D2E/DX2                !
 ! D10   D(1,2,3,7)            180.0            estimate D2E/DX2                !
 ! D11   D(17,2,3,4)           180.0            estimate D2E/DX2                !
 ! D12   D(17,2,3,7)             0.0            estimate D2E/DX2                !
 ! D13   D(2,3,4,5)              0.0            estimate D2E/DX2                !
 ! D14   D(2,3,4,8)            180.0            estimate D2E/DX2                !
 ! D15   D(7,3,4,5)            180.0            estimate D2E/DX2                !
 ! D16   D(7,3,4,8)              0.0            estimate D2E/DX2                !
 ! D17   D(2,3,7,10)           180.0            estimate D2E/DX2                !
 ! D18   D(2,3,7,15)             0.0            estimate D2E/DX2                !
 ! D19   D(4,3,7,10)             0.0            estimate D2E/DX2                !
 ! D20   D(4,3,7,15)           180.0            estimate D2E/DX2                !
 ! D21   D(3,4,5,6)              0.0            estimate D2E/DX2                !
 ! D22   D(3,4,5,18)           180.0            estimate D2E/DX2                !
 ! D23   D(8,4,5,6)            180.0            estimate D2E/DX2                !
 ! D24   D(8,4,5,18)             0.0            estimate D2E/DX2                !
 ! D25   D(3,4,8,9)              0.0            estimate D2E/DX2                !
 ! D26   D(3,4,8,14)           180.0            estimate D2E/DX2                !
 ! D27   D(5,4,8,9)            180.0            estimate D2E/DX2                !
 ! D28   D(5,4,8,14)             0.0            estimate D2E/DX2                !
 ! D29   D(4,5,6,1)              0.0            estimate D2E/DX2                !
 ! D30   D(4,5,6,19)           180.0            estimate D2E/DX2                !
 ! D31   D(18,5,6,1)           180.0            estimate D2E/DX2                !
 ! D32   D(18,5,6,19)            0.0            estimate D2E/DX2                !
 ! D33   D(3,7,10,9)             0.0            estimate D2E/DX2                !
 ! D34   D(3,7,10,20)          180.0            estimate D2E/DX2                !
 ! D35   D(15,7,10,9)          180.0            estimate D2E/DX2                !
 ! D36   D(15,7,10,20)           0.0            estimate D2E/DX2                !
 ! D37   D(4,8,9,10)             0.0            estimate D2E/DX2                !
 ! D38   D(4,8,9,11)           180.0            estimate D2E/DX2                !
 ! D39   D(14,8,9,10)          180.0            estimate D2E/DX2                !
 ! D40   D(14,8,9,11)            0.0            estimate D2E/DX2                !
 ! D41   D(4,8,14,13)          180.0            estimate D2E/DX2                !
 ! D42   D(4,8,14,22)            0.0            estimate D2E/DX2                !
 ! D43   D(9,8,14,13)            0.0            estimate D2E/DX2                !
 ! D44   D(9,8,14,22)          180.0            estimate D2E/DX2                !
 ! D45   D(8,9,10,7)             0.0            estimate D2E/DX2                !
 ! D46   D(8,9,10,20)          180.0            estimate D2E/DX2                !
 ! D47   D(11,9,10,7)          180.0            estimate D2E/DX2                !
 ! D48   D(11,9,10,20)           0.0            estimate D2E/DX2                !
 ! D49   D(8,9,11,12)            0.0            estimate D2E/DX2                !
 ! D50   D(8,9,11,23)          180.0            estimate D2E/DX2                !
 ! D51   D(10,9,11,12)         180.0            estimate D2E/DX2                !
 ! D52   D(10,9,11,23)           0.0            estimate D2E/DX2                !
 ! D53   D(9,11,12,13)           0.0            estimate D2E/DX2                !
 ! D54   D(9,11,12,25)         180.0            estimate D2E/DX2                !
 ! D55   D(23,11,12,13)        180.0            estimate D2E/DX2                !
 ! D56   D(23,11,12,25)          0.0            estimate D2E/DX2                !
 ! D57   D(9,11,23,24)           0.0            estimate D2E/DX2                !
 ! D58   D(9,11,23,29)         180.0            estimate D2E/DX2                !
 ! D59   D(12,11,23,24)        180.0            estimate D2E/DX2                !
 ! D60   D(12,11,23,29)          0.0            estimate D2E/DX2                !
 ! D61   D(11,12,13,14)          0.0            estimate D2E/DX2                !
 ! D62   D(11,12,13,21)        180.0            estimate D2E/DX2                !
 ! D63   D(25,12,13,14)        180.0            estimate D2E/DX2                !
 ! D64   D(25,12,13,21)          0.0            estimate D2E/DX2                !
 ! D65   D(11,12,25,26)        180.0            estimate D2E/DX2                !
 ! D66   D(11,12,25,27)          0.0            estimate D2E/DX2                !
 ! D67   D(13,12,25,26)          0.0            estimate D2E/DX2                !
 ! D68   D(13,12,25,27)        180.0            estimate D2E/DX2                !
 ! D69   D(12,13,14,8)           0.0            estimate D2E/DX2                !
 ! D70   D(12,13,14,22)        180.0            estimate D2E/DX2                !
 ! D71   D(21,13,14,8)         180.0            estimate D2E/DX2                !
 ! D72   D(21,13,14,22)          0.0            estimate D2E/DX2                !
 ! D73   D(11,23,29,27)          0.0            estimate D2E/DX2                !
 ! D74   D(11,23,29,30)        180.0            estimate D2E/DX2                !
 ! D75   D(24,23,29,27)        180.0            estimate D2E/DX2                !
 ! D76   D(24,23,29,30)          0.0            estimate D2E/DX2                !
 ! D77   D(12,25,27,28)        180.0            estimate D2E/DX2                !
 ! D78   D(12,25,27,29)          0.0            estimate D2E/DX2                !
 ! D79   D(26,25,27,28)          0.0            estimate D2E/DX2                !
 ! D80   D(26,25,27,29)        180.0            estimate D2E/DX2                !
 ! D81   D(25,27,29,23)          0.0            estimate D2E/DX2                !
 ! D82   D(25,27,29,30)        180.0            estimate D2E/DX2                !
 ! D83   D(28,27,29,23)        180.0            estimate D2E/DX2                !
 ! D84   D(28,27,29,30)          0.0            estimate D2E/DX2                !
 --------------------------------------------------------------------------------
 Trust Radius=3.00D-01 FncErr=1.00D-07 GrdErr=1.00D-06
 Number of steps in this run= 180 maximum allowed number of steps= 180.
 GradGradGradGradGradGradGradGradGradGradGradGradGradGradGradGradGradGrad

 Leave Link  103 at Mon Apr 06 00:47:12 2009, MaxMem=  209715200 cpu:       0.0
 (Enter C:\G03W\l202.exe)
                          Input orientation:                          
 ---------------------------------------------------------------------
 Center     Atomic     Atomic              Coordinates (Angstroms)
 Number     Number      Type              X           Y           Z
 ---------------------------------------------------------------------
    1          6             0        0.115407   -4.546797    0.000000
    2          6             0        1.172055   -3.694945    0.000000
    3          6             0        0.955212   -2.312107    0.000000
    4          6             0       -0.350963   -1.820599    0.000000
    5          6             0       -1.428662   -2.713252    0.000000
    6          6             0       -1.199197   -4.050621    0.000000
    7          6             0        2.040842   -1.423419    0.000000
    8          6             0       -0.569249   -0.440018    0.000000
    9          6             0        0.569249    0.440018    0.000000
   10          6             0        1.828745   -0.081205    0.000000
   11          6             0        0.350963    1.820599    0.000000
   12          6             0       -0.955212    2.312107    0.000000
   13          6             0       -2.040842    1.423419    0.000000
   14          6             0       -1.828745    0.081205    0.000000
   15          1             0        3.040717   -1.804403    0.000000
   16          1             0        0.284608   -5.603334    0.000000
   17          1             0        2.170272   -4.080254    0.000000
   18          1             0       -2.432108   -2.341775    0.000000
   19          1             0       -2.024492   -4.731641    0.000000
   20          1             0        2.662715    0.589164    0.000000
   21          1             0       -3.040717    1.804403    0.000000
   22          1             0       -2.662715   -0.589164    0.000000
   23          6             0        1.428662    2.713252    0.000000
   24          1             0        2.432108    2.341775    0.000000
   25          6             0       -1.172055    3.694945    0.000000
   26          1             0       -2.170272    4.080254    0.000000
   27          6             0       -0.115407    4.546797    0.000000
   28          1             0       -0.284608    5.603334    0.000000
   29          6             0        1.199197    4.050621    0.000000
   30          1             0        2.024492    4.731641    0.000000
 ---------------------------------------------------------------------
                    Distance matrix (angstroms):
                    1          2          3          4          5
     1  C    0.000000
     2  C    1.357261   0.000000
     3  C    2.387281   1.399736   0.000000
     4  C    2.765801   2.415110   1.395591   0.000000
     5  C    2.397088   2.779829   2.417390   1.399380   0.000000
     6  C    1.405124   2.397779   2.768377   2.385896   1.356911
     7  C    3.669168   2.431999   1.402982   2.424558   3.701503
     8  C    4.163458   3.691435   2.414270   1.397731   2.430264
     9  C    5.007424   4.178672   2.779057   2.440734   3.732930
    10  C    4.782995   3.672923   2.395827   2.788659   4.187884
    11  C    6.371752   5.576327   4.176647   3.708237   4.870613
    12  C    6.941958   6.372593   5.003306   4.176647   5.047612
    13  C    6.347668   6.043208   4.788579   3.657779   4.181724
    14  C    5.019773   4.823288   3.671288   2.408464   2.822952
    15  H    4.009759   2.658203   2.146414   3.391719   4.560850
    16  H    1.070000   2.104641   3.358852   3.835757   3.359742
    17  H    2.107163   1.070000   2.145394   3.385656   3.849808
    18  H    3.369266   3.849813   3.387450   2.145411   1.070000
    19  H    2.147868   3.360455   3.838331   3.357807   2.104497
    20  H    5.732964   4.536040   3.366443   3.858654   5.257881
    21  H    7.092169   6.927502   5.736995   4.513914   4.796659
    22  H    4.835372   4.934708   4.007235   2.619281   2.456550
    23  C    7.377869   6.413333   5.047612   4.870613   6.132801
    24  H    7.267705   6.166824   4.882606   5.007079   6.360727
    25  C    8.341695   7.752763   6.372593   5.576327   6.413333
    26  H    8.924703   8.463148   7.115541   6.174945   6.833865
    27  C    9.096523   8.341695   6.941958   6.371752   7.377869
    28  H   10.158010   9.411688   8.011951   7.424230   8.394907
    29  C    8.665460   7.745614   6.367404   6.072415   7.256420
    30  H    9.472804   8.469593   7.124447   6.969551   8.206748
                    6          7          8          9         10
     6  C    0.000000
     7  C    4.171336   0.000000
     8  C    3.665145   2.789203   0.000000
     9  C    4.826308   2.374444   1.438973   0.000000
    10  C    4.992464   1.358869   2.424690   1.363086   0.000000
    11  C    6.072415   3.657779   2.440734   1.397731   2.408464
    12  C    6.367404   4.788579   2.779057   2.414270   3.671288
    13  C    5.538364   4.976407   2.374444   2.789203   4.151818
    14  C    4.179511   4.151818   1.363086   2.424690   3.661094
    15  H    4.798163   1.070000   3.859197   3.338500   2.106725
    16  H    2.147696   4.533878   5.233441   6.050052   5.733958
    17  H    3.369600   2.659986   4.555907   4.795428   4.013606
    18  H    2.107184   4.566252   2.662127   4.092251   4.823385
    19  H    1.070000   5.241305   4.531640   5.785633   6.039370
    20  H    6.036719   2.106470   3.391874   2.098772   1.070000
    21  H    6.137793   6.020056   3.338500   3.859197   5.221798
    22  H    3.758134   4.776968   2.098772   3.391874   4.520092
    23  C    7.256420   4.181724   3.732930   2.430264   2.822952
    24  H    7.351810   3.785469   4.092251   2.662127   2.496974
    25  C    7.745614   6.043208   4.178672   3.691435   4.823288
    26  H    8.188657   6.929927   4.795428   4.555907   5.771471
    27  C    8.665460   6.347668   5.007424   4.163458   5.019773
    28  H    9.697181   7.401552   6.050052   5.233441   6.064672
    29  C    8.448812   5.538364   4.826308   3.665145   4.179511
    30  H    9.355228   6.155082   5.785633   4.531640   4.816825
                   11         12         13         14         15
    11  C    0.000000
    12  C    1.395591   0.000000
    13  C    2.424558   1.402982   0.000000
    14  C    2.788659   2.395827   1.358869   0.000000
    15  H    4.513914   5.736995   6.020056   5.221798   0.000000
    16  H    7.424230   8.011951   7.401552   6.064672   4.693401
    17  H    6.174945   7.115541   6.929927   5.771471   2.436631
    18  H    5.007079   4.882606   3.785469   2.496974   5.499144
    19  H    6.969551   7.124447   6.155082   4.816825   5.850219
    20  H    2.619281   4.007235   4.776968   4.520092   2.423231
    21  H    3.391719   2.146414   1.070000   2.106725   7.071586
    22  H    3.858654   3.366443   2.106470   1.070000   5.831462
    23  C    1.399380   2.417390   3.701503   4.187884   4.796659
    24  H    2.145411   3.387450   4.566252   4.823385   4.190609
    25  C    2.415110   1.399736   2.431999   3.672923   6.927502
    26  H    3.385656   2.145394   2.659986   4.013606   7.860254
    27  C    2.765801   2.387281   3.669168   4.782995   7.092169
    28  H    3.835757   3.358852   4.533878   5.733958   8.119875
    29  C    2.385896   2.768377   4.171336   4.992464   6.137793
    30  H    3.357807   3.838331   5.241305   6.039370   6.614574
                   16         17         18         19         20
    16  H    0.000000
    17  H    2.423944   0.000000
    18  H    4.244798   4.919778   0.000000
    19  H    2.468156   4.245039   2.424378   0.000000
    20  H    6.633432   4.695313   5.877723   7.090901   0.000000
    21  H    8.119875   7.860254   4.190609   6.614574   5.831462
    22  H    5.816237   5.962002   1.767718   4.191353   5.454233
    23  C    8.394907   6.833865   6.360727   8.206748   2.456550
    24  H    8.230220   6.427364   6.752499   8.360293   1.767718
    25  C    9.411688   8.463148   6.166824   8.469593   4.934708
    26  H    9.989910   9.243063   6.427364   8.813100   5.962002
    27  C   10.158010   8.924703   7.267705   9.472804   4.835372
    28  H   11.221115   9.989910   8.230220  10.480406   5.816237
    29  C    9.697181   8.188657   7.351810   9.355228   3.758134
    30  H   10.480406   8.813100   8.360293  10.293103   4.191353
                   21         22         23         24         25
    21  H    0.000000
    22  H    2.423231   0.000000
    23  C    4.560850   5.257881   0.000000
    24  H    5.499144   5.877723   1.070000   0.000000
    25  C    2.658203   4.536040   2.779829   3.849813   0.000000
    26  H    2.436631   4.695313   3.849808   4.919778   1.070000
    27  C    4.009759   5.732964   2.397088   3.369266   1.357261
    28  H    4.693401   6.633432   3.359742   4.244798   2.104641
    29  C    4.798163   6.036719   1.356911   2.107184   2.397779
    30  H    5.850219   7.090901   2.104497   2.424378   3.360455
                   26         27         28         29         30
    26  H    0.000000
    27  C    2.107163   0.000000
    28  H    2.423944   1.070000   0.000000
    29  C    3.369600   1.405124   2.147696   0.000000
    30  H    4.245039   2.147868   2.468156   1.070000   0.000000
 Stoichiometry    C18H12(1+,2)
 Framework group  C2H[SGH(C18H12)]
 Deg. of freedom    29
 Full point group                 C2H     NOp   4
 Largest Abelian subgroup         C2H     NOp   4
 Largest concise Abelian subgroup C2      NOp   2
                         Standard orientation:                         
 ---------------------------------------------------------------------
 Center     Atomic     Atomic              Coordinates (Angstroms)
 Number     Number      Type              X           Y           Z
 ---------------------------------------------------------------------
    1          6             0        0.517183    4.518761    0.000000
    2          6             0       -0.647533    3.821915    0.000000
    3          6             0       -0.624843    2.422362    0.000000
    4          6             0        0.600411    1.754213    0.000000
    5          6             0        1.791640    2.488541    0.000000
    6          6             0        1.750137    3.844818    0.000000
    7          6             0       -1.823375    1.693062    0.000000
    8          6             0        0.624843    0.356695    0.000000
    9          6             0       -0.624843   -0.356695    0.000000
   10          6             0       -1.799744    0.334399    0.000000
   11          6             0       -0.600411   -1.754213    0.000000
   12          6             0        0.624843   -2.422362    0.000000
   13          6             0        1.823375   -1.693062    0.000000
   14          6             0        1.799744   -0.334399    0.000000
   15          1             0       -2.760649    2.209220    0.000000
   16          1             0        0.496356    5.588558    0.000000
   17          1             0       -1.582563    4.342125    0.000000
   18          1             0        2.733770    1.981303    0.000000
   19          1             0        2.662016    4.404619    0.000000
   20          1             0       -2.718735   -0.213649    0.000000
   21          1             0        2.760649   -2.209220    0.000000
   22          1             0        2.718735    0.213649    0.000000
   23          6             0       -1.791640   -2.488541    0.000000
   24          1             0       -2.733770   -1.981303    0.000000
   25          6             0        0.647533   -3.821915    0.000000
   26          1             0        1.582563   -4.342125    0.000000
   27          6             0       -0.517183   -4.518761    0.000000
   28          1             0       -0.496356   -5.588558    0.000000
   29          6             0       -1.750137   -3.844818    0.000000
   30          1             0       -2.662016   -4.404619    0.000000
 ---------------------------------------------------------------------
 Rotational constants (GHZ):      1.2881069      0.2783038      0.2288576
 Leave Link  202 at Mon Apr 06 00:47:20 2009, MaxMem=  209715200 cpu:       0.0
 (Enter C:\G03W\l301.exe)
 Standard basis: EPR-II (5D, 7F)
 There are   153 symmetry adapted basis functions of AG  symmetry.
 There are    42 symmetry adapted basis functions of BG  symmetry.
 There are    42 symmetry adapted basis functions of AU  symmetry.
 There are   153 symmetry adapted basis functions of BU  symmetry.
 Integral buffers will be    262144 words long.
 Raffenetti 2 integral format.
 Two-electron integral symmetry is turned on.
   390 basis functions,   666 primitive gaussians,   408 cartesian basis functions
    60 alpha electrons       59 beta electrons
       nuclear repulsion energy      1160.4766807088 Hartrees.
 IExCor= 402 DFT=T Ex=B+HF Corr=LYP ExCW=0 ScaHFX=  0.200000
 ScaDFX=  0.800000  0.720000  1.000000  0.810000
 IRadAn=      0 IRanWt=     -1 IRanGd=            0 ICorTp=0
 NAtoms=   30 NActive=   30 NUniq=   15 SFac= 5.66D+00 NAtFMM=   60 Big=F
 Leave Link  301 at Mon Apr 06 00:47:34 2009, MaxMem=  209715200 cpu:       0.0
 (Enter C:\G03W\l302.exe)
 NPDir=0 NMtPBC=     1 NCelOv=     1 NCel=       1 NClECP=     1 NCelD=      1
         NCelK=      1 NCelE2=     1 NClLst=     1 CellRange=     0.0.
 One-electron integrals computed using PRISM.
 One-electron integral symmetry used in STVInt
 NBasis=   390 RedAO= T  NBF=   153    42    42   153
 NBsUse=   390 1.00D-06 NBFU=   153    42    42   153
 Precomputing XC quadrature grid using
 IXCGrd= 2 IRadAn=           0 IRanWt=          -1 IRanGd=           0.
 NRdTot=    1934 NPtTot=      246640 NUsed=      255404 NTot=      255420
 NSgBfM=   381   381   381   381.
 Leave Link  302 at Mon Apr 06 00:47:49 2009, MaxMem=  209715200 cpu:       5.0
 (Enter C:\G03W\l303.exe)
 DipDrv:  MaxL=1.
 Leave Link  303 at Mon Apr 06 00:47:57 2009, MaxMem=  209715200 cpu:       1.0
 (Enter C:\G03W\l401.exe)
 SCF N**3 symmetry information disabled.
 Harris functional with IExCor=  402 diagonalized for initial guess.
 ExpMin= 4.79D-02 ExpMax= 4.23D+03 ExpMxC= 6.35D+02 IAcc=2 IRadAn=         4 AccDes= 0.00D+00
 HarFok:  IExCor= 402 AccDes= 0.00D+00 IRadAn=         4 IDoV=1
 ScaDFX=  1.000000  1.000000  1.000000  1.000000
 Harris En= -693.155386957483    
 Initial guess orbital symmetries:
 Alpha Orbitals:
       Occupied  (AG) (BU) (AG) (BU) (AG) (BU) (AG) (BU) (AG) (BU)
                 (BU) (AG) (BU) (AG) (AG) (BU) (AG) (BU) (AG) (BU)
                 (AG) (BU) (BU) (AG) (BU) (AG) (AG) (BU) (BU) (AG)
                 (BU) (AG) (AG) (BU) (AG) (BU) (AG) (BU) (AG) (BU)
                 (BU) (AG) (AG) (BU) (AG) (AU) (BU) (AG) (BG) (BU)
                 (BU) (AG) (AG) (AU) (BG) (AU) (BG) (BG) (AU) (?A)
       Virtual   (?A) (BG) (AU) (BG) (AU) (AU) (BG) (BU) (AG) (BU)
                 (AG) (AU) (AG) (AG) (BU) (BU) (BU) (AG) (AG) (BG)
                 (BU) (BU) (AG) (BU) (BU) (AG) (BU) (AG) (BU) (AG)
                 (AG) (BU) (BU) (AG) (BU) (AG) (AG) (BU) (BU) (AG)
                 (AU) (AG) (BG) (BU) (AG) (BG) (BU) (AG) (BU) (AU)
                 (AG) (AU) (BU) (BU) (AG) (BG) (AG) (BU) (BG) (AG)
                 (AU) (BU) (AU) (BU) (AG) (BG) (AU) (BU) (AG) (BU)
                 (AG) (AG) (BU) (BG) (BU) (AG) (BU) (AG) (AG) (BG)
                 (BU) (AU) (BU) (BU) (AG) (AG) (BU) (AU) (AG) (BG)
                 (BU) (AU) (BU) (BU) (AG) (AG) (BU) (AG) (BG) (AG)
                 (BU) (AG) (AG) (AG) (BU) (AG) (BU) (BU) (BG) (AU)
                 (AG) (BU) (AG) (BU) (AU) (BU) (AG) (BG) (BU) (AG)
                 (AG) (AU) (BG) (BU) (AU) (AG) (BU) (BG) (AG) (BU)
                 (AG) (BG) (AU) (AU) (BU) (BU) (AG) (BG) (BU) (BG)
                 (AG) (AU) (AG) (BU) (AU) (BU) (AG) (AG) (BU) (AG)
                 (BU) (AG) (AG) (BU) (AG) (BU) (BG) (AG) (AU) (BU)
                 (AG) (BG) (BU) (AG) (AU) (BU) (BU) (BG) (BU) (AG)
                 (BG) (AU) (AU) (AG) (BU) (BU) (AG) (AG) (BG) (BU)
                 (BU) (AG) (AG) (BU) (AG) (BG) (BU) (BU) (BG) (AU)
                 (BU) (AG) (AU) (AG) (BG) (AG) (BU) (AU) (AG) (BU)
                 (BG) (AG) (AU) (BU) (BU) (AG) (AU) (AG) (BU) (BG)
                 (BU) (AU) (AG) (BG) (AG) (AU) (BG) (BU) (BG) (AU)
                 (AG) (AU) (BU) (AG) (BU) (BU) (AG) (BG) (AG) (BU)
                 (AU) (BG) (AG) (BU) (BU) (AG) (AU) (AG) (BG) (BU)
                 (BU) (BG) (AU) (AG) (BU) (AG) (BU) (BU) (AG) (AG)
                 (BU) (AG) (BU) (AG) (BU) (AG) (BU) (AG) (AG) (BU)
                 (BU) (AG) (BU) (AG) (BU) (AG) (AG) (BU) (BU) (AG)
                 (AG) (BU) (AG) (AG) (BU) (BU) (AG) (BU) (AG) (BU)
                 (AG) (BU) (AG) (BU) (AG) (BU) (BU) (AG) (BU) (AG)
                 (AG) (BU) (AG) (BU) (BU) (AG) (AG) (BU) (AG) (BU)
                 (AG) (BU) (AG) (BU) (AG) (BU) (AG) (BU) (AG) (BU)
                 (AG) (BU) (BU) (AG) (AG) (BU) (AG) (BU) (AG) (BU)
                 (BU) (AG) (AG) (BU) (BU) (AG) (AG) (BU) (AG) (BU)
 Beta  Orbitals:
       Occupied  (AG) (BU) (AG) (BU) (AG) (BU) (AG) (BU) (AG) (BU)
                 (BU) (AG) (BU) (AG) (AG) (BU) (AG) (BU) (AG) (BU)
                 (AG) (BU) (BU) (AG) (BU) (AG) (AG) (BU) (BU) (AG)
                 (BU) (AG) (AG) (BU) (AG) (BU) (AG) (BU) (AG) (BU)
                 (BU) (AG) (AG) (BU) (AG) (AU) (BU) (AG) (BG) (BU)
                 (BU) (AG) (AG) (AU) (BG) (AU) (BG) (BG) (AU)
       Virtual   (AU) (BG) (BG) (AU) (BG) (AU) (AU) (BG) (BU) (AG)
                 (BU) (AG) (AU) (AG) (AG) (BU) (BU) (BU) (AG) (AG)
                 (BG) (BU) (BU) (AG) (BU) (BU) (AG) (BU) (AG) (BU)
                 (AG) (AG) (BU) (BU) (AG) (BU) (AG) (AG) (BU) (BU)
                 (AG) (AU) (AG) (BG) (BU) (AG) (BG) (BU) (AG) (BU)
                 (AU) (AG) (AU) (BU) (BU) (AG) (BG) (AG) (BU) (BG)
                 (AG) (AU) (BU) (AU) (BU) (AG) (BG) (AU) (BU) (AG)
                 (BU) (AG) (AG) (BU) (BG) (BU) (AG) (BU) (AG) (AG)
                 (BG) (BU) (AU) (BU) (BU) (AG) (AG) (BU) (AU) (AG)
                 (BG) (BU) (AU) (BU) (BU) (AG) (AG) (BU) (AG) (BG)
                 (AG) (BU) (AG) (AG) (AG) (BU) (AG) (BU) (BU) (BG)
                 (AU) (AG) (BU) (AG) (BU) (AU) (BU) (AG) (BG) (BU)
                 (AG) (AG) (AU) (BG) (BU) (AU) (AG) (BU) (BG) (AG)
                 (BU) (AG) (BG) (AU) (AU) (BU) (BU) (AG) (BG) (BU)
                 (BG) (AG) (AU) (AG) (BU) (AU) (BU) (AG) (AG) (BU)
                 (AG) (BU) (AG) (AG) (BU) (AG) (BU) (BG) (AG) (AU)
                 (BU) (AG) (BG) (BU) (AG) (AU) (BU) (BU) (BG) (BU)
                 (AG) (BG) (AU) (AU) (AG) (BU) (BU) (AG) (AG) (BG)
                 (BU) (BU) (AG) (AG) (BU) (AG) (BG) (BU) (BU) (BG)
                 (AU) (BU) (AG) (AU) (AG) (BG) (AG) (BU) (AU) (AG)
                 (BU) (BG) (AG) (AU) (BU) (BU) (AG) (AU) (AG) (BU)
                 (BG) (BU) (AU) (AG) (BG) (AG) (AU) (BG) (BU) (BG)
                 (AU) (AG) (AU) (BU) (AG) (BU) (BU) (AG) (BG) (AG)
                 (BU) (AU) (BG) (AG) (BU) (BU) (AG) (AU) (AG) (BG)
                 (BU) (BU) (BG) (AU) (AG) (BU) (AG) (BU) (BU) (AG)
                 (AG) (BU) (AG) (BU) (AG) (BU) (AG) (BU) (AG) (AG)
                 (BU) (BU) (AG) (BU) (AG) (BU) (AG) (AG) (BU) (BU)
                 (AG) (AG) (BU) (AG) (AG) (BU) (BU) (AG) (BU) (AG)
                 (BU) (AG) (BU) (AG) (BU) (AG) (BU) (BU) (AG) (BU)
                 (AG) (AG) (BU) (AG) (BU) (BU) (AG) (AG) (BU) (AG)
                 (BU) (AG) (BU) (AG) (BU) (AG) (BU) (AG) (BU) (AG)
                 (BU) (AG) (BU) (BU) (AG) (AG) (BU) (AG) (BU) (AG)
                 (BU) (BU) (AG) (AG) (BU) (BU) (AG) (AG) (BU) (AG)
                 (BU)
 <S**2> of initial guess= 1.0000
 Leave Link  401 at Mon Apr 06 00:48:28 2009, MaxMem=  209715200 cpu:      24.0
 (Enter C:\G03W\l502.exe)
 UHF open shell SCF:
 Requested convergence on RMS density matrix=1.00D-08 within 128 cycles.
 Requested convergence on MAX density matrix=1.00D-06.
 Requested convergence on             energy=1.00D-06.
 No special actions if energy rises.
 Using DIIS extrapolation, IDIIS=  1040.
 Integral symmetry usage will be decided dynamically.
       255403 words used for storage of precomputed grid.
 IEnd=    818555 IEndB=    818555 NGot= 209715200 MDV= 209080158
 LenX= 209080158
 Fock matrices will be formed incrementally for  20 cycles.

 Cycle   1  Pass 1  IDiag  1:
 Petite list used in FoFDir.
 MinBra= 0 MaxBra= 2 Meth= 1.
 IRaf=       0 NMat=   1 IRICut=       1 DoRegI=T DoRafI=F ISym2E= 1 JSym2E=1.
 E= -692.540517020550    
 DIIS: error= 3.41D-02 at cycle   1 NSaved=   1.
 NSaved= 1 IEnMin= 1 EnMin= -692.540517020550     IErMin= 1 ErrMin= 3.41D-02
 ErrMax= 3.41D-02 EMaxC= 1.00D-01 BMatC= 1.13D+00 BMatP= 1.13D+00
 IDIUse=3 WtCom= 6.59D-01 WtEn= 3.41D-01
 Coeff-Com:  0.100D+01
 Coeff-En:   0.100D+01
 Coeff:      0.100D+01
 Gap=     0.000 Goal=   None    Shift=    0.000
 Gap=     0.027 Goal=   None    Shift=    0.000
 GapD=    0.000 DampG=0.250 DampE=0.500 DampFc=0.2500 IDamp=-1.
 Damping current iteration by 2.50D-01
 RMSDP=8.24D-03 MaxDP=3.31D-01              OVMax= 7.00D-01

 Density matrix breaks symmetry, PCut= 1.00D-04
 Density matrix has no symmetry -- integrals replicated.
 Cycle   2  Pass 1  IDiag  1:
 RMSU=  1.58D-03    CP:  9.23D-01
 E= -692.675343526421     Delta-E=       -0.134826505872 Rises=F Damp=T
 DIIS: error= 2.06D-02 at cycle   2 NSaved=   2.
 NSaved= 2 IEnMin= 2 EnMin= -692.675343526421     IErMin= 2 ErrMin= 2.06D-02
 ErrMax= 2.06D-02 EMaxC= 1.00D-01 BMatC= 3.89D-01 BMatP= 1.13D+00
 IDIUse=3 WtCom= 7.94D-01 WtEn= 2.06D-01
 Coeff-Com: -0.921D+00 0.192D+01
 Coeff-En:   0.000D+00 0.100D+01
 Coeff:     -0.732D+00 0.173D+01
 Gap=     0.135 Goal=   None    Shift=    0.000
 Gap=     0.041 Goal=   None    Shift=    0.000
 RMSDP=5.82D-03 MaxDP=2.57D-01 DE=-1.35D-01 OVMax= 3.09D-01

 Density matrix breaks symmetry, PCut= 1.00D-04
 Density matrix has no symmetry -- integrals replicated.
 Cycle   3  Pass 1  IDiag  1:
 RMSU=  3.21D-03    CP:  6.93D-01  2.16D+00
 E= -692.788918403345     Delta-E=       -0.113574876924 Rises=F Damp=F
 DIIS: error= 2.99D-02 at cycle   3 NSaved=   3.
 NSaved= 3 IEnMin= 3 EnMin= -692.788918403345     IErMin= 2 ErrMin= 2.06D-02
 ErrMax= 2.99D-02 EMaxC= 1.00D-01 BMatC= 5.10D-01 BMatP= 3.89D-01
 IDIUse=2 WtCom= 0.00D+00 WtEn= 1.00D+00
 Coeff-En:   0.000D+00 0.252D+00 0.748D+00
 Coeff:      0.000D+00 0.252D+00 0.748D+00
 Gap=     0.242 Goal=   None    Shift=    0.000
 Gap=     0.075 Goal=   None    Shift=    0.000
 RMSDP=3.45D-03 MaxDP=2.34D-01 DE=-1.14D-01 OVMax= 6.25D-01

 Density matrix breaks symmetry, PCut= 1.00D-04
 Density matrix has no symmetry -- integrals replicated.
 Cycle   4  Pass 1  IDiag  1:
 RMSU=  2.75D-03    CP:  7.15D-01  2.26D+00  3.63D-01
 E= -692.468403817346     Delta-E=        0.320514585999 Rises=F Damp=F
 DIIS: error= 5.28D-02 at cycle   4 NSaved=   4.
 NSaved= 4 IEnMin= 3 EnMin= -692.788918403345     IErMin= 2 ErrMin= 2.06D-02
 ErrMax= 5.28D-02 EMaxC= 1.00D-01 BMatC= 1.38D+00 BMatP= 3.89D-01
 IDIUse=2 WtCom= 0.00D+00 WtEn= 1.00D+00
 Coeff-En:   0.000D+00 0.000D+00 0.684D+00 0.316D+00
 Coeff:      0.000D+00 0.000D+00 0.684D+00 0.316D+00
 Gap=     0.167 Goal=   None    Shift=    0.000
 Gap=     0.035 Goal=   None    Shift=    0.000
 RMSDP=1.94D-03 MaxDP=1.45D-01 DE= 3.21D-01 OVMax= 4.61D-01

 Density matrix breaks symmetry, PCut= 1.00D-04
 Density matrix has no symmetry -- integrals replicated.
 Cycle   5  Pass 1  IDiag  1:
 RMSU=  7.95D-04    CP:  7.17D-01  2.01D+00  6.79D-01  4.91D-01
 E= -692.942975534961     Delta-E=       -0.474571717615 Rises=F Damp=F
 DIIS: error= 9.37D-03 at cycle   5 NSaved=   5.
 NSaved= 5 IEnMin= 5 EnMin= -692.942975534961     IErMin= 5 ErrMin= 9.37D-03
 ErrMax= 9.37D-03 EMaxC= 1.00D-01 BMatC= 7.39D-02 BMatP= 3.89D-01
 IDIUse=3 WtCom= 9.06D-01 WtEn= 9.37D-02
 Coeff-Com: -0.114D+00 0.208D+00 0.313D+00 0.618D-01 0.531D+00
 Coeff-En:   0.000D+00 0.000D+00 0.115D+00 0.000D+00 0.885D+00
 Coeff:     -0.104D+00 0.189D+00 0.295D+00 0.561D-01 0.564D+00
 Gap=     0.151 Goal=   None    Shift=    0.000
 Gap=     0.052 Goal=   None    Shift=    0.000
 RMSDP=6.35D-04 MaxDP=4.60D-02 DE=-4.75D-01 OVMax= 8.52D-02

 Density matrix breaks symmetry, PCut= 1.00D-04
 Density matrix has no symmetry -- integrals replicated.
 Cycle   6  Pass 1  IDiag  1:
 RMSU=  4.09D-04    CP:  7.12D-01  2.05D+00  7.58D-01  3.87D-01  6.52D-01
 E= -692.961761193318     Delta-E=       -0.018785658357 Rises=F Damp=F
 DIIS: error= 3.28D-03 at cycle   6 NSaved=   6.
 NSaved= 6 IEnMin= 6 EnMin= -692.961761193318     IErMin= 6 ErrMin= 3.28D-03
 ErrMax= 3.28D-03 EMaxC= 1.00D-01 BMatC= 1.23D-02 BMatP= 7.39D-02
 IDIUse=3 WtCom= 9.67D-01 WtEn= 3.28D-02
 Coeff-Com: -0.539D-01 0.646D-01 0.746D-01-0.275D-01 0.397D+00 0.545D+00
 Coeff-En:   0.000D+00 0.000D+00 0.000D+00 0.000D+00 0.752D-01 0.925D+00
 Coeff:     -0.521D-01 0.625D-01 0.722D-01-0.266D-01 0.386D+00 0.558D+00
 Gap=     0.155 Goal=   None    Shift=    0.000
 Gap=     0.053 Goal=   None    Shift=    0.000
 RMSDP=2.70D-04 MaxDP=1.66D-02 DE=-1.88D-02 OVMax= 5.27D-02

 Density matrix breaks symmetry, PCut= 1.00D-04
 Density matrix has no symmetry -- integrals replicated.
 Cycle   7  Pass 1  IDiag  1:
 RMSU=  1.86D-04    CP:  7.12D-01  2.04D+00  7.55D-01  3.92D-01  8.03D-01
                    CP:  6.29D-01
 E= -692.965436814005     Delta-E=       -0.003675620687 Rises=F Damp=F
 DIIS: error= 1.75D-03 at cycle   7 NSaved=   7.
 NSaved= 7 IEnMin= 7 EnMin= -692.965436814005     IErMin= 7 ErrMin= 1.75D-03
 ErrMax= 1.75D-03 EMaxC= 1.00D-01 BMatC= 1.82D-03 BMatP= 1.23D-02
 IDIUse=3 WtCom= 9.83D-01 WtEn= 1.75D-02
 Coeff-Com: -0.346D-01 0.422D-01 0.210D-01-0.240D-01 0.209D+00 0.363D+00
 Coeff-Com:  0.424D+00
 Coeff-En:   0.000D+00 0.000D+00 0.000D+00 0.000D+00 0.000D+00 0.000D+00
 Coeff-En:   0.100D+01
 Coeff:     -0.340D-01 0.415D-01 0.206D-01-0.236D-01 0.205D+00 0.357D+00
 Coeff:      0.434D+00
 Gap=     0.154 Goal=   None    Shift=    0.000
 Gap=     0.055 Goal=   None    Shift=    0.000
 RMSDP=9.59D-05 MaxDP=6.70D-03 DE=-3.68D-03 OVMax= 1.92D-02

 Density matrix breaks symmetry, PCut= 1.00D-04
 Density matrix has no symmetry -- integrals replicated.
 Cycle   8  Pass 1  IDiag  1:
 RMSU=  7.70D-05    CP:  7.12D-01  2.03D+00  7.58D-01  3.96D-01  8.01D-01
                    CP:  7.55D-01  9.01D-01
 E= -692.966151073448     Delta-E=       -0.000714259443 Rises=F Damp=F
 DIIS: error= 8.72D-04 at cycle   8 NSaved=   8.
 NSaved= 8 IEnMin= 8 EnMin= -692.966151073448     IErMin= 8 ErrMin= 8.72D-04
 ErrMax= 8.72D-04 EMaxC= 1.00D-01 BMatC= 2.03D-04 BMatP= 1.82D-03
 IDIUse=3 WtCom= 9.91D-01 WtEn= 8.72D-03
 Coeff-Com:  0.666D-02-0.766D-02-0.139D-01 0.350D-02-0.457D-01-0.772D-01
 Coeff-Com:  0.119D+00 0.101D+01
 Coeff-En:   0.000D+00 0.000D+00 0.000D+00 0.000D+00 0.000D+00 0.000D+00
 Coeff-En:   0.000D+00 0.100D+01
 Coeff:      0.661D-02-0.760D-02-0.137D-01 0.347D-02-0.453D-01-0.765D-01
 Coeff:      0.118D+00 0.101D+01
 Gap=     0.154 Goal=   None    Shift=    0.000
 Gap=     0.056 Goal=   None    Shift=    0.000
 RMSDP=9.58D-05 MaxDP=9.58D-03 DE=-7.14D-04 OVMax= 4.21D-02

 Density matrix breaks symmetry, PCut= 1.00D-04
 Density matrix has no symmetry -- integrals replicated.
 Cycle   9  Pass 1  IDiag  1:
 RMSU=  4.22D-05    CP:  7.12D-01  2.02D+00  7.61D-01  4.05D-01  8.14D-01
                    CP:  8.06D-01  1.27D+00  1.43D+00
 E= -692.966519934853     Delta-E=       -0.000368861405 Rises=F Damp=F
 DIIS: error= 4.82D-04 at cycle   9 NSaved=   9.
 NSaved= 9 IEnMin= 9 EnMin= -692.966519934853     IErMin= 9 ErrMin= 4.82D-04
 ErrMax= 4.82D-04 EMaxC= 1.00D-01 BMatC= 1.01D-04 BMatP= 2.03D-04
 IDIUse=3 WtCom= 9.95D-01 WtEn= 4.82D-03
 Coeff-Com:  0.694D-02-0.654D-02-0.113D-01 0.657D-02-0.642D-01-0.122D+00
 Coeff-Com: -0.818D-01 0.521D+00 0.751D+00
 Coeff-En:   0.000D+00 0.000D+00 0.000D+00 0.000D+00 0.000D+00 0.000D+00
 Coeff-En:   0.000D+00 0.000D+00 0.100D+01
 Coeff:      0.691D-02-0.651D-02-0.112D-01 0.654D-02-0.639D-01-0.121D+00
 Coeff:     -0.814D-01 0.519D+00 0.752D+00
 Gap=     0.154 Goal=   None    Shift=    0.000
 Gap=     0.057 Goal=   None    Shift=    0.000
 RMSDP=6.01D-05 MaxDP=4.56D-03 DE=-3.69D-04 OVMax= 2.54D-02

 Density matrix breaks symmetry, PCut= 1.00D-04
 Density matrix has no symmetry -- integrals replicated.
 Cycle  10  Pass 1  IDiag  1:
 RMSU=  2.48D-05    CP:  7.12D-01  2.02D+00  7.63D-01  4.09D-01  8.21D-01
                    CP:  8.37D-01  1.47D+00  1.87D+00  1.23D+00
 E= -692.966656862604     Delta-E=       -0.000136927751 Rises=F Damp=F
 DIIS: error= 3.37D-04 at cycle  10 NSaved=  10.
 NSaved=10 IEnMin=10 EnMin= -692.966656862604     IErMin=10 ErrMin= 3.37D-04
 ErrMax= 3.37D-04 EMaxC= 1.00D-01 BMatC= 4.57D-05 BMatP= 1.01D-04
 IDIUse=3 WtCom= 9.97D-01 WtEn= 3.37D-03
 Coeff-Com: -0.338D-02 0.555D-02 0.332D-02 0.500D-04 0.701D-02-0.619D-02
 Coeff-Com: -0.122D+00-0.231D+00 0.472D+00 0.875D+00
 Coeff-En:   0.000D+00 0.000D+00 0.000D+00 0.000D+00 0.000D+00 0.000D+00
 Coeff-En:   0.000D+00 0.000D+00 0.000D+00 0.100D+01
 Coeff:     -0.337D-02 0.553D-02 0.331D-02 0.498D-04 0.698D-02-0.617D-02
 Coeff:     -0.121D+00-0.231D+00 0.470D+00 0.876D+00
 Gap=     0.155 Goal=   None    Shift=    0.000
 Gap=     0.057 Goal=   None    Shift=    0.000
 RMSDP=5.04D-05 MaxDP=3.57D-03 DE=-1.37D-04 OVMax= 2.28D-02

 Density matrix breaks symmetry, PCut= 1.00D-04
 Density matrix has no symmetry -- integrals replicated.
 Cycle  11  Pass 1  IDiag  1:
 RMSU=  1.72D-05    CP:  7.12D-01  2.02D+00  7.63D-01  4.12D-01  8.20D-01
                    CP:  8.71D-01  1.61D+00  2.19D+00  1.84D+00  1.15D+00
 E= -692.966727630798     Delta-E=       -0.000070768194 Rises=F Damp=F
 DIIS: error= 1.79D-04 at cycle  11 NSaved=  11.
 NSaved=11 IEnMin=11 EnMin= -692.966727630798     IErMin=11 ErrMin= 1.79D-04
 ErrMax= 1.79D-04 EMaxC= 1.00D-01 BMatC= 1.99D-05 BMatP= 4.57D-05
 IDIUse=3 WtCom= 9.98D-01 WtEn= 1.79D-03
 Coeff-Com: -0.496D-02 0.703D-02 0.520D-02-0.204D-02 0.223D-01 0.268D-01
 Coeff-Com: -0.665D-01-0.286D+00 0.124D+00 0.586D+00 0.588D+00
 Coeff-En:   0.000D+00 0.000D+00 0.000D+00 0.000D+00 0.000D+00 0.000D+00
 Coeff-En:   0.000D+00 0.000D+00 0.000D+00 0.000D+00 0.100D+01
 Coeff:     -0.495D-02 0.702D-02 0.519D-02-0.204D-02 0.223D-01 0.268D-01
 Coeff:     -0.664D-01-0.285D+00 0.123D+00 0.585D+00 0.589D+00
 Gap=     0.155 Goal=   None    Shift=    0.000
 Gap=     0.058 Goal=   None    Shift=    0.000
 RMSDP=2.37D-05 MaxDP=1.66D-03 DE=-7.08D-05 OVMax= 1.03D-02

 Density matrix breaks symmetry, PCut= 1.00D-04
 Density matrix has no symmetry -- integrals replicated.
 Cycle  12  Pass 1  IDiag  1:
 RMSU=  8.85D-06    CP:  7.12D-01  2.02D+00  7.63D-01  4.13D-01  8.21D-01
                    CP:  8.78D-01  1.67D+00  2.34D+00  2.06D+00  1.52D+00
                    CP:  9.90D-01
 E= -692.966750170368     Delta-E=       -0.000022539570 Rises=F Damp=F
 DIIS: error= 1.36D-04 at cycle  12 NSaved=  12.
 NSaved=12 IEnMin=12 EnMin= -692.966750170368     IErMin=12 ErrMin= 1.36D-04
 ErrMax= 1.36D-04 EMaxC= 1.00D-01 BMatC= 4.47D-06 BMatP= 1.99D-05
 IDIUse=3 WtCom= 9.99D-01 WtEn= 1.36D-03
 Coeff-Com:  0.302D-03-0.115D-02 0.127D-02-0.838D-03 0.961D-02 0.176D-01
 Coeff-Com:  0.392D-01 0.219D-01-0.212D+00-0.251D+00 0.219D+00 0.116D+01
 Coeff-En:   0.000D+00 0.000D+00 0.000D+00 0.000D+00 0.000D+00 0.000D+00
 Coeff-En:   0.000D+00 0.000D+00 0.000D+00 0.000D+00 0.000D+00 0.100D+01
 Coeff:      0.302D-03-0.115D-02 0.127D-02-0.837D-03 0.960D-02 0.176D-01
 Coeff:      0.392D-01 0.219D-01-0.212D+00-0.251D+00 0.218D+00 0.116D+01
 Gap=     0.155 Goal=   None    Shift=    0.000
 Gap=     0.057 Goal=   None    Shift=    0.000
 RMSDP=2.35D-05 MaxDP=1.70D-03 DE=-2.25D-05 OVMax= 1.13D-02

 Density matrix breaks symmetry, PCut= 1.00D-04
 Density matrix has no symmetry -- integrals replicated.
 Cycle  13  Pass 1  IDiag  1:
 RMSU=  6.16D-06    CP:  7.12D-01  2.02D+00  7.63D-01  4.15D-01  8.22D-01
                    CP:  8.85D-01  1.73D+00  2.48D+00  2.32D+00  1.85D+00
                    CP:  1.51D+00  1.37D+00
 E= -692.966762434734     Delta-E=       -0.000012264367 Rises=F Damp=F
 DIIS: error= 5.24D-05 at cycle  13 NSaved=  13.
 NSaved=13 IEnMin=13 EnMin= -692.966762434734     IErMin=13 ErrMin= 5.24D-05
 ErrMax= 5.24D-05 EMaxC= 1.00D-01 BMatC= 2.50D-06 BMatP= 4.47D-06
 IDIUse=1 WtCom= 1.00D+00 WtEn= 0.00D+00
 Coeff-Com:  0.149D-02-0.250D-02-0.607D-03-0.870D-05 0.146D-03 0.421D-02
 Coeff-Com:  0.419D-01 0.933D-01-0.171D+00-0.332D+00-0.287D-01 0.762D+00
 Coeff-Com:  0.632D+00
 Coeff:      0.149D-02-0.250D-02-0.607D-03-0.870D-05 0.146D-03 0.421D-02
 Coeff:      0.419D-01 0.933D-01-0.171D+00-0.332D+00-0.287D-01 0.762D+00
 Coeff:      0.632D+00
 Gap=     0.155 Goal=   None    Shift=    0.000
 Gap=     0.057 Goal=   None    Shift=    0.000
 RMSDP=1.11D-05 MaxDP=7.27D-04 DE=-1.23D-05 OVMax= 4.91D-03

 Density matrix breaks symmetry, PCut= 1.00D-04
 Density matrix has no symmetry -- integrals replicated.
 Cycle  14  Pass 1  IDiag  1:
 RMSU=  3.21D-06    CP:  7.12D-01  2.02D+00  7.64D-01  4.15D-01  8.21D-01
                    CP:  8.90D-01  1.76D+00  2.54D+00  2.42D+00  1.99D+00
                    CP:  1.70D+00  1.81D+00  9.81D-01
 E= -692.966765554194     Delta-E=       -0.000003119459 Rises=F Damp=F
 DIIS: error= 3.93D-05 at cycle  14 NSaved=  14.
 NSaved=14 IEnMin=14 EnMin= -692.966765554194     IErMin=14 ErrMin= 3.93D-05
 ErrMax= 3.93D-05 EMaxC= 1.00D-01 BMatC= 5.62D-07 BMatP= 2.50D-06
 IDIUse=1 WtCom= 1.00D+00 WtEn= 0.00D+00
 Coeff-Com:  0.820D-03-0.112D-02-0.855D-03 0.262D-03-0.301D-02-0.280D-02
 Coeff-Com:  0.112D-01 0.491D-01-0.236D-01-0.115D+00-0.104D+00 0.412D-01
 Coeff-Com:  0.367D+00 0.781D+00
 Coeff:      0.820D-03-0.112D-02-0.855D-03 0.262D-03-0.301D-02-0.280D-02
 Coeff:      0.112D-01 0.491D-01-0.236D-01-0.115D+00-0.104D+00 0.412D-01
 Coeff:      0.367D+00 0.781D+00
 Gap=     0.155 Goal=   None    Shift=    0.000
 Gap=     0.057 Goal=   None    Shift=    0.000
 RMSDP=6.46D-06 MaxDP=4.63D-04 DE=-3.12D-06 OVMax= 3.09D-03

 Density matrix breaks symmetry, PCut= 1.00D-04
 Density matrix has no symmetry -- integrals replicated.
 Cycle  15  Pass 1  IDiag  1:
 RMSU=  1.87D-06    CP:  7.12D-01  2.02D+00  7.64D-01  4.15D-01  8.21D-01
                    CP:  8.92D-01  1.77D+00  2.57D+00  2.48D+00  2.07D+00
                    CP:  1.84D+00  2.00D+00  1.26D+00  1.02D+00
 E= -692.966766471429     Delta-E=       -0.000000917236 Rises=F Damp=F
 DIIS: error= 1.84D-05 at cycle  15 NSaved=  15.
 NSaved=15 IEnMin=15 EnMin= -692.966766471429     IErMin=15 ErrMin= 1.84D-05
 ErrMax= 1.84D-05 EMaxC= 1.00D-01 BMatC= 1.37D-07 BMatP= 5.62D-07
 IDIUse=1 WtCom= 1.00D+00 WtEn= 0.00D+00
 Coeff-Com:  0.918D-04 0.594D-05-0.397D-03 0.125D-03-0.180D-02-0.268D-02
 Coeff-Com: -0.422D-02 0.404D-02 0.296D-01 0.143D-01-0.442D-01-0.140D+00
 Coeff-Com:  0.214D-01 0.364D+00 0.759D+00
 Coeff:      0.918D-04 0.594D-05-0.397D-03 0.125D-03-0.180D-02-0.268D-02
 Coeff:     -0.422D-02 0.404D-02 0.296D-01 0.143D-01-0.442D-01-0.140D+00
 Coeff:      0.214D-01 0.364D+00 0.759D+00
 Gap=     0.155 Goal=   None    Shift=    0.000
 Gap=     0.057 Goal=   None    Shift=    0.000
 RMSDP=2.76D-06 MaxDP=1.81D-04 DE=-9.17D-07 OVMax= 1.30D-03

 Density matrix breaks symmetry, PCut= 1.00D-04
 Density matrix has no symmetry -- integrals replicated.
 Cycle  16  Pass 1  IDiag  1:
 RMSU=  1.02D-06    CP:  7.12D-01  2.02D+00  7.64D-01  4.15D-01  8.21D-01
                    CP:  8.93D-01  1.78D+00  2.59D+00  2.51D+00  2.10D+00
                    CP:  1.89D+00  2.09D+00  1.38D+00  1.24D+00  1.07D+00
 E= -692.966766666747     Delta-E=       -0.000000195318 Rises=F Damp=F
 DIIS: error= 1.06D-05 at cycle  16 NSaved=  16.
 NSaved=16 IEnMin=16 EnMin= -692.966766666747     IErMin=16 ErrMin= 1.06D-05
 ErrMax= 1.06D-05 EMaxC= 1.00D-01 BMatC= 7.02D-08 BMatP= 1.37D-07
 IDIUse=1 WtCom= 1.00D+00 WtEn= 0.00D+00
 Coeff-Com: -0.158D-03 0.242D-03 0.128D-03-0.228D-04 0.378D-03-0.169D-03
 Coeff-Com: -0.654D-02-0.159D-01 0.275D-01 0.493D-01 0.108D-01-0.101D+00
 Coeff-Com: -0.141D+00-0.733D-01 0.523D+00 0.727D+00
 Coeff:     -0.158D-03 0.242D-03 0.128D-03-0.228D-04 0.378D-03-0.169D-03
 Coeff:     -0.654D-02-0.159D-01 0.275D-01 0.493D-01 0.108D-01-0.101D+00
 Coeff:     -0.141D+00-0.733D-01 0.523D+00 0.727D+00
 Gap=     0.155 Goal=   None    Shift=    0.000
 Gap=     0.057 Goal=   None    Shift=    0.000
 RMSDP=1.88D-06 MaxDP=1.15D-04 DE=-1.95D-07 OVMax= 9.10D-04

 Cycle  17  Pass 1  IDiag  1:
 RMSU=  7.85D-07    CP:  7.12D-01  2.02D+00  7.63D-01  4.15D-01  8.21D-01
                    CP:  8.94D-01  1.78D+00  2.59D+00  2.52D+00  2.11D+00
                    CP:  1.92D+00  2.16D+00  1.49D+00  1.41D+00  1.53D+00
                    CP:  1.32D+00
 E= -692.968112188224     Delta-E=       -0.001345521476 Rises=F Damp=F
 DIIS: error= 1.78D-04 at cycle  17 NSaved=  17.
 NSaved=17 IEnMin=17 EnMin= -692.968112188224     IErMin=16 ErrMin= 1.06D-05
 ErrMax= 1.78D-04 EMaxC= 1.00D-01 BMatC= 9.27D-06 BMatP= 7.02D-08
 IDIUse=1 WtCom= 1.00D+00 WtEn= 0.00D+00
 Coeff-Com: -0.158D-03 0.241D-03 0.128D-03-0.229D-04 0.380D-03-0.166D-03
 Coeff-Com: -0.653D-02-0.159D-01 0.274D-01 0.492D-01 0.108D-01-0.101D+00
 Coeff-Com: -0.140D+00-0.731D-01 0.522D+00 0.725D+00 0.203D-02
 Coeff:     -0.158D-03 0.241D-03 0.128D-03-0.229D-04 0.380D-03-0.166D-03
 Coeff:     -0.653D-02-0.159D-01 0.274D-01 0.492D-01 0.108D-01-0.101D+00
 Coeff:     -0.140D+00-0.731D-01 0.522D+00 0.725D+00 0.203D-02
 Gap=     0.155 Goal=   None    Shift=    0.000
 Gap=     0.057 Goal=   None    Shift=    0.000
 RMSDP=1.09D-06 MaxDP=8.14D-05 DE=-1.35D-03 OVMax= 1.29D-06

 Cycle  18  Pass 1  IDiag  1:
 RMSU=  1.01D-06    CP:  7.12D-01  2.02D+00  7.64D-01  4.15D-01  8.21D-01
                    CP:  8.94D-01  1.78D+00  2.59D+00  2.52D+00  2.11D+00
                    CP:  1.93D+00  2.17D+00  1.48D+00  1.39D+00  1.54D+00
                    CP:  1.28D+00  1.12D+00
 E= -692.968386873988     Delta-E=       -0.000274685764 Rises=F Damp=F
 DIIS: error= 1.95D-04 at cycle  18 NSaved=  18.
 NSaved=18 IEnMin=18 EnMin= -692.968386873988     IErMin=16 ErrMin= 1.06D-05
 ErrMax= 1.95D-04 EMaxC= 1.00D-01 BMatC= 9.24D-06 BMatP= 7.02D-08
 IDIUse=1 WtCom= 1.00D+00 WtEn= 0.00D+00
 Coeff-Com: -0.158D-03 0.241D-03 0.128D-03-0.229D-04 0.380D-03-0.166D-03
 Coeff-Com: -0.653D-02-0.159D-01 0.274D-01 0.492D-01 0.108D-01-0.101D+00
 Coeff-Com: -0.140D+00-0.731D-01 0.522D+00 0.725D+00-0.385D-03 0.247D-02
 Coeff:     -0.158D-03 0.241D-03 0.128D-03-0.229D-04 0.380D-03-0.166D-03
 Coeff:     -0.653D-02-0.159D-01 0.274D-01 0.492D-01 0.108D-01-0.101D+00
 Coeff:     -0.140D+00-0.731D-01 0.522D+00 0.725D+00-0.385D-03 0.247D-02
 Gap=     0.155 Goal=   None    Shift=    0.000
 Gap=     0.057 Goal=   None    Shift=    0.000
 RMSDP=1.41D-07 MaxDP=7.95D-06 DE=-2.75D-04 OVMax= 1.80D-07

 Cycle  19  Pass 1  IDiag  1:
 RMSU=  1.25D-07    CP:  7.12D-01  2.02D+00  7.64D-01  4.15D-01  8.21D-01
                    CP:  8.94D-01  1.78D+00  2.59D+00  2.52D+00  2.11D+00
                    CP:  1.93D+00  2.17D+00  1.48D+00  1.38D+00  1.54D+00
                    CP:  1.28D+00  1.13D+00  1.05D+00
 E= -692.968464149390     Delta-E=       -0.000077275402 Rises=F Damp=F
 DIIS: error= 1.94D-04 at cycle  19 NSaved=  19.
 NSaved=19 IEnMin=19 EnMin= -692.968464149390     IErMin=16 ErrMin= 1.06D-05
 ErrMax= 1.94D-04 EMaxC= 1.00D-01 BMatC= 9.23D-06 BMatP= 7.02D-08
 IDIUse=1 WtCom= 1.00D+00 WtEn= 0.00D+00
 Coeff-Com: -0.158D-03 0.241D-03 0.128D-03-0.229D-04 0.379D-03-0.165D-03
 Coeff-Com: -0.653D-02-0.159D-01 0.274D-01 0.492D-01 0.108D-01-0.101D+00
 Coeff-Com: -0.140D+00-0.731D-01 0.522D+00 0.725D+00 0.518D-02-0.354D-01
 Coeff-Com:  0.324D-01
 Coeff:     -0.158D-03 0.241D-03 0.128D-03-0.229D-04 0.379D-03-0.165D-03
 Coeff:     -0.653D-02-0.159D-01 0.274D-01 0.492D-01 0.108D-01-0.101D+00
 Coeff:     -0.140D+00-0.731D-01 0.522D+00 0.725D+00 0.518D-02-0.354D-01
 Coeff:      0.324D-01
 Gap=     0.155 Goal=   None    Shift=    0.000
 Gap=     0.057 Goal=   None    Shift=    0.000
 RMSDP=2.07D-07 MaxDP=1.09D-05 DE=-7.73D-05 OVMax= 2.44D-07

 Cycle  20  Pass 1  IDiag  1:
 Restarting incremental Fock formation.
 E= -692.966748042840     Delta-E=        0.001716106550 Rises=F Damp=F
 DIIS: error= 4.47D-06 at cycle  20 NSaved=  20.
 NSaved=20 IEnMin=19 EnMin= -692.968464149390     IErMin=20 ErrMin= 4.47D-06
 ErrMax= 4.47D-06 EMaxC= 1.00D-01 BMatC= 9.05D-09 BMatP= 7.02D-08
 IDIUse=1 WtCom= 1.00D+00 WtEn= 0.00D+00
 Coeff-Com: -0.191D-04 0.672D-05 0.894D-04-0.155D-04 0.346D-03 0.348D-03
 Coeff-Com: -0.134D-02-0.434D-02 0.230D-02 0.612D-02 0.481D-02-0.131D-01
 Coeff-Com: -0.542D-01-0.517D-01 0.959D-01 0.187D+00-0.123D-02 0.124D-02
 Coeff-Com:  0.196D-02 0.826D+00
 Coeff:     -0.191D-04 0.672D-05 0.894D-04-0.155D-04 0.346D-03 0.348D-03
 Coeff:     -0.134D-02-0.434D-02 0.230D-02 0.612D-02 0.481D-02-0.131D-01
 Coeff:     -0.542D-01-0.517D-01 0.959D-01 0.187D+00-0.123D-02 0.124D-02
 Coeff:      0.196D-02 0.826D+00
 Gap=     0.155 Goal=   None    Shift=    0.000
 Gap=     0.057 Goal=   None    Shift=    0.000
 RMSDP=1.43D-06 MaxDP=1.07D-04 DE= 1.72D-03 OVMax= 6.71D-04

 Cycle  21  Pass 1  IDiag  1:
 RMSU=  1.38D-06    CP:  1.00D+00
 E= -692.966743315429     Delta-E=        0.000004727411 Rises=F Damp=F
 DIIS: error= 1.48D-06 at cycle  21 NSaved=  20.
 NSaved=20 IEnMin=18 EnMin= -692.968464149390     IErMin=20 ErrMin= 1.48D-06
 ErrMax= 1.48D-06 EMaxC= 1.00D-01 BMatC= 2.03D-09 BMatP= 9.05D-09
 IDIUse=1 WtCom= 1.00D+00 WtEn= 0.00D+00
 Coeff-Com:  0.215D-04-0.389D-04 0.109D-04 0.480D-04 0.108D-03 0.308D-03
 Coeff-Com:  0.333D-03-0.325D-02-0.303D-02-0.103D-02 0.723D-02 0.774D-03
 Coeff-Com: -0.782D-02-0.201D-01-0.429D-01 0.264D-02-0.203D-01 0.199D-01
 Coeff-Com:  0.377D+00 0.690D+00
 Coeff:      0.215D-04-0.389D-04 0.109D-04 0.480D-04 0.108D-03 0.308D-03
 Coeff:      0.333D-03-0.325D-02-0.303D-02-0.103D-02 0.723D-02 0.774D-03
 Coeff:     -0.782D-02-0.201D-01-0.429D-01 0.264D-02-0.203D-01 0.199D-01
 Coeff:      0.377D+00 0.690D+00
 Gap=     0.155 Goal=   None    Shift=    0.000
 Gap=     0.057 Goal=   None    Shift=    0.000
 RMSDP=3.74D-07 MaxDP=2.54D-05 DE= 4.73D-06 OVMax= 1.08D-04

 Cycle  22  Pass 1  IDiag  1:
 RMSU=  2.52D-07    CP:  1.00D+00  1.12D+00
 E= -692.966765349543     Delta-E=       -0.000022034114 Rises=F Damp=F
 DIIS: error= 9.84D-07 at cycle  22 NSaved=  20.
 NSaved=20 IEnMin=17 EnMin= -692.968464149390     IErMin=20 ErrMin= 9.84D-07
 ErrMax= 9.84D-07 EMaxC= 1.00D-01 BMatC= 6.78D-10 BMatP= 2.03D-09
 IDIUse=1 WtCom= 1.00D+00 WtEn= 0.00D+00
 Coeff-Com: -0.157D-05 0.157D-04 0.481D-04 0.750D-04 0.269D-04-0.145D-03
 Coeff-Com: -0.116D-02-0.549D-03 0.216D-03 0.389D-02-0.856D-03-0.535D-02
 Coeff-Com: -0.883D-02-0.164D-01 0.208D-02-0.169D-01 0.170D-01 0.201D+00
 Coeff-Com:  0.404D+00 0.422D+00
 Coeff:     -0.157D-05 0.157D-04 0.481D-04 0.750D-04 0.269D-04-0.145D-03
 Coeff:     -0.116D-02-0.549D-03 0.216D-03 0.389D-02-0.856D-03-0.535D-02
 Coeff:     -0.883D-02-0.164D-01 0.208D-02-0.169D-01 0.170D-01 0.201D+00
 Coeff:      0.404D+00 0.422D+00
 Gap=     0.155 Goal=   None    Shift=    0.000
 Gap=     0.057 Goal=   None    Shift=    0.000
 RMSDP=1.58D-07 MaxDP=1.08D-05 DE=-2.20D-05 OVMax= 6.38D-05

 Cycle  23  Pass 1  IDiag  1:
 RMSU=  4.00D-08    CP:  1.00D+00  1.02D+00  7.49D-01
 E= -692.966766044814     Delta-E=       -0.000000695270 Rises=F Damp=F
 DIIS: error= 6.27D-07 at cycle  23 NSaved=  20.
 NSaved=20 IEnMin=16 EnMin= -692.968464149390     IErMin=20 ErrMin= 6.27D-07
 ErrMax= 6.27D-07 EMaxC= 1.00D-01 BMatC= 3.07D-10 BMatP= 6.78D-10
 IDIUse=1 WtCom= 1.00D+00 WtEn= 0.00D+00
 Coeff-Com:  0.135D-04 0.391D-04 0.610D-04 0.165D-04-0.113D-03-0.104D-02
 Coeff-Com: -0.531D-03 0.220D-03 0.343D-02-0.112D-02-0.493D-02-0.847D-02
 Coeff-Com: -0.158D-01 0.209D-02-0.168D-01 0.169D-01 0.192D+00 0.355D+00
 Coeff-Com:  0.287D+00 0.192D+00
 Coeff:      0.135D-04 0.391D-04 0.610D-04 0.165D-04-0.113D-03-0.104D-02
 Coeff:     -0.531D-03 0.220D-03 0.343D-02-0.112D-02-0.493D-02-0.847D-02
 Coeff:     -0.158D-01 0.209D-02-0.168D-01 0.169D-01 0.192D+00 0.355D+00
 Coeff:      0.287D+00 0.192D+00
 Gap=     0.155 Goal=   None    Shift=    0.000
 Gap=     0.057 Goal=   None    Shift=    0.000
 RMSDP=1.22D-08 MaxDP=7.08D-07 DE=-6.95D-07 OVMax= 1.91D-06

 Cycle  24  Pass 1  IDiag  1:
 RMSU=  8.79D-09    CP:  1.00D+00  1.02D+00  7.30D-01  1.12D+00
 E= -692.966765576079     Delta-E=        0.000000468734 Rises=F Damp=F
 DIIS: error= 5.83D-07 at cycle  24 NSaved=  20.
 NSaved=20 IEnMin=15 EnMin= -692.968464149390     IErMin=20 ErrMin= 5.83D-07
 ErrMax= 5.83D-07 EMaxC= 1.00D-01 BMatC= 2.65D-10 BMatP= 3.07D-10
 IDIUse=1 WtCom= 1.00D+00 WtEn= 0.00D+00
 Coeff-Com:  0.162D-05-0.117D-04-0.260D-04-0.115D-03 0.196D-03 0.339D-03
 Coeff-Com: -0.672D-04-0.204D-02-0.262D-02-0.426D-02 0.695D-03-0.182D-02
 Coeff-Com:  0.222D-02-0.177D-01 0.176D-01 0.655D-01-0.165D+00-0.112D+01
 Coeff-Com: -0.499D+01 0.722D+01
 Coeff:      0.162D-05-0.117D-04-0.260D-04-0.115D-03 0.196D-03 0.339D-03
 Coeff:     -0.672D-04-0.204D-02-0.262D-02-0.426D-02 0.695D-03-0.182D-02
 Coeff:      0.222D-02-0.177D-01 0.176D-01 0.655D-01-0.165D+00-0.112D+01
 Coeff:     -0.499D+01 0.722D+01
 Gap=     0.155 Goal=   None    Shift=    0.000
 Gap=     0.057 Goal=   None    Shift=    0.000
 RMSDP=1.45D-07 MaxDP=1.05D-05 DE= 4.69D-07 OVMax= 2.44D-05

 Cycle  25  Pass 1  IDiag  1:
 RMSU=  6.74D-08    CP:  1.00D+00  9.62D-01  6.24D-01  3.00D+00  3.00D+00
 E= -692.966767531047     Delta-E=       -0.000001954968 Rises=F Damp=F
 DIIS: error= 3.64D-07 at cycle  25 NSaved=  20.
 NSaved=20 IEnMin=14 EnMin= -692.968464149390     IErMin=20 ErrMin= 3.64D-07
 ErrMax= 3.64D-07 EMaxC= 1.00D-01 BMatC= 5.95D-11 BMatP= 2.65D-10
 IDIUse=1 WtCom= 1.00D+00 WtEn= 0.00D+00
 Coeff-Com:  0.939D-05 0.551D-04 0.412D-04-0.206D-03-0.351D-03-0.205D-03
 Coeff-Com:  0.179D-03 0.409D-03-0.424D-03-0.269D-02-0.563D-02 0.249D-02
 Coeff-Com: -0.191D-01 0.187D-01 0.102D-01-0.292D-01-0.281D+00-0.202D+01
 Coeff-Com:  0.261D+01 0.725D+00
 Coeff:      0.939D-05 0.551D-04 0.412D-04-0.206D-03-0.351D-03-0.205D-03
 Coeff:      0.179D-03 0.409D-03-0.424D-03-0.269D-02-0.563D-02 0.249D-02
 Coeff:     -0.191D-01 0.187D-01 0.102D-01-0.292D-01-0.281D+00-0.202D+01
 Coeff:      0.261D+01 0.725D+00
 Gap=     0.155 Goal=   None    Shift=    0.000
 Gap=     0.057 Goal=   None    Shift=    0.000
 RMSDP=4.37D-08 MaxDP=2.57D-06 DE=-1.95D-06 OVMax= 2.09D-05

 Cycle  26  Pass 1  IDiag  1:
 RMSU=  1.50D-08    CP:  1.00D+00  9.90D-01  6.77D-01  3.00D+00  3.00D+00
                    CP:  1.01D+00
 E= -692.966767240419     Delta-E=        0.000000290628 Rises=F Damp=F
 DIIS: error= 3.57D-07 at cycle  26 NSaved=  20.
 NSaved=20 IEnMin=13 EnMin= -692.968464149390     IErMin=20 ErrMin= 3.57D-07
 ErrMax= 3.57D-07 EMaxC= 1.00D-01 BMatC= 4.42D-11 BMatP= 5.95D-11
 IDIUse=1 WtCom= 1.00D+00 WtEn= 0.00D+00
 Coeff-Com:  0.657D-05 0.174D-04-0.468D-04-0.856D-04-0.392D-04 0.197D-04
 Coeff-Com:  0.209D-03 0.442D-03-0.601D-03-0.191D-02 0.213D-02-0.172D-01
 Coeff-Com:  0.172D-01-0.628D-02 0.177D-02-0.173D-01-0.594D+00 0.665D+00
 Coeff-Com:  0.313D+00 0.637D+00
 Coeff:      0.657D-05 0.174D-04-0.468D-04-0.856D-04-0.392D-04 0.197D-04
 Coeff:      0.209D-03 0.442D-03-0.601D-03-0.191D-02 0.213D-02-0.172D-01
 Coeff:      0.172D-01-0.628D-02 0.177D-02-0.173D-01-0.594D+00 0.665D+00
 Coeff:      0.313D+00 0.637D+00
 Gap=     0.155 Goal=   None    Shift=    0.000
 Gap=     0.057 Goal=   None    Shift=    0.000
 RMSDP=1.59D-08 MaxDP=7.00D-07 DE= 2.91D-07 OVMax= 3.73D-06

 Cycle  27  Pass 1  IDiag  1:
 RMSU=  8.82D-09    CP:  1.00D+00  9.96D-01  6.39D-01  3.00D+00  3.00D+00
                    CP:  1.00D+00  9.71D-01
 E= -692.966766219125     Delta-E=        0.000001021294 Rises=F Damp=F
 DIIS: error= 3.61D-07 at cycle  27 NSaved=  20.
 NSaved=20 IEnMin=12 EnMin= -692.968464149390     IErMin=19 ErrMin= 3.57D-07
 ErrMax= 3.61D-07 EMaxC= 1.00D-01 BMatC= 4.16D-11 BMatP= 4.42D-11
 IDIUse=1 WtCom= 1.00D+00 WtEn= 0.00D+00
 Coeff-Com:  0.668D-05-0.872D-05-0.227D-04 0.120D-04 0.321D-04 0.208D-03
 Coeff-Com:  0.645D-03 0.529D-03-0.991D-03 0.216D-02-0.176D-01 0.175D-01
 Coeff-Com: -0.935D-02 0.970D-02 0.680D-01 0.495D-01-0.158D+00 0.638D-02
 Coeff-Com:  0.325D+00 0.706D+00
 Coeff:      0.668D-05-0.872D-05-0.227D-04 0.120D-04 0.321D-04 0.208D-03
 Coeff:      0.645D-03 0.529D-03-0.991D-03 0.216D-02-0.176D-01 0.175D-01
 Coeff:     -0.935D-02 0.970D-02 0.680D-01 0.495D-01-0.158D+00 0.638D-02
 Coeff:      0.325D+00 0.706D+00
 Gap=     0.155 Goal=   None    Shift=    0.000
 Gap=     0.057 Goal=   None    Shift=    0.000
 RMSDP=7.98D-09 MaxDP=4.17D-07 DE= 1.02D-06 OVMax= 3.40D-06

 Cycle  28  Pass 1  IDiag  1:
 RMSU=  3.56D-09    CP:  1.00D+00  1.00D+00  6.54D-01  3.00D+00  3.00D+00
                    CP:  1.00D+00  1.05D+00  1.14D+00
 E= -692.966766343347     Delta-E=       -0.000000124222 Rises=F Damp=F
 DIIS: error= 3.61D-07 at cycle  28 NSaved=  20.
 NSaved=20 IEnMin=11 EnMin= -692.968464149390     IErMin=18 ErrMin= 3.57D-07
 ErrMax= 3.61D-07 EMaxC= 1.00D-01 BMatC= 4.00D-11 BMatP= 4.16D-11
 IDIUse=1 WtCom= 1.00D+00 WtEn= 0.00D+00
 Coeff-Com:  0.379D-05-0.609D-05 0.210D-04 0.587D-05-0.354D-04 0.182D-03
 Coeff-Com:  0.774D-03-0.533D-03 0.209D-02-0.174D-01 0.174D-01-0.208D-02
 Coeff-Com:  0.614D-02 0.333D-01 0.119D+00-0.181D+00-0.858D-01-0.496D-01
 Coeff-Com:  0.307D+00 0.850D+00
 Coeff:      0.379D-05-0.609D-05 0.210D-04 0.587D-05-0.354D-04 0.182D-03
 Coeff:      0.774D-03-0.533D-03 0.209D-02-0.174D-01 0.174D-01-0.208D-02
 Coeff:      0.614D-02 0.333D-01 0.119D+00-0.181D+00-0.858D-01-0.496D-01
 Coeff:      0.307D+00 0.850D+00
 Gap=     0.155 Goal=   None    Shift=    0.000
 Gap=     0.057 Goal=   None    Shift=    0.000
 RMSDP=5.97D-09 MaxDP=2.70D-07 DE=-1.24D-07 OVMax= 1.67D-06

 SCF Done:  E(UB+HF-LYP) =  -692.966766343     A.U. after   28 cycles
             Convg  =    0.5968D-08             -V/T =  2.0058
             S**2   =   0.7621
 KE= 6.889932229340D+02 PE=-3.909090226965D+03 EE= 1.366653556979D+03
 Annihilation of the first spin contaminant:
 S**2 before annihilation     0.7621,   after     0.7501
 Leave Link  502 at Mon Apr 06 04:25:23 2009, MaxMem=  209715200 cpu:   13007.0
 (Enter C:\G03W\l601.exe)
 Copying SCF densities to generalized density rwf, ISCF=1 IROHF=0.

 **********************************************************************

            Population analysis using the SCF density.

 **********************************************************************

 Orbital symmetries:
 Alpha Orbitals:
       Occupied  (AG) (BU) (?A) (?A) (?A) (?A) (?A) (?A) (?A) (?A)
                 (?A) (?A) (?A) (?A) (?A) (?A) (?A) (?A) (AG) (BU)
                 (AG) (BU) (AG) (BU) (BU) (AG) (AG) (BU) (BU) (AG)
                 (BU) (AG) (AG) (BU) (AG) (BU) (AG) (AG) (BU) (BU)
                 (AG) (BU) (AU) (AG) (BU) (BU) (AG) (BG) (AG) (BU)
                 (BU) (AU) (BG) (AG) (AG) (AU) (BG) (BG) (AU) (AU)
       Virtual   (BG) (BG) (AU) (BG) (AU) (AG) (BU) (BU) (AU) (AG)
                 (AG) (AG) (BG) (BU) (BU) (BU) (AG) (AG) (BU) (AG)
                 (BU) (BU) (AU) (AG) (AG) (BU) (AG) (BU) (BG) (BU)
                 (BU) (AG) (BU) (AG) (AG) (AU) (BU) (AG) (BU) (AG)
                 (BU) (BG) (AG) (BG) (BU) (BU) (AU) (AG) (AU) (AG)
                 (BU) (AG) (BU) (BG) (AG) (BG) (AU) (BU) (AG) (AG)
                 (BU) (BG) (AU) (BU) (AU) (AG) (BU) (AG) (BU) (BU)
                 (BG) (AG) (BU) (AG) (AG) (BU) (BG) (BU) (AU) (AG)
                 (AG) (BU) (BU) (AG) (AU) (BU) (BG) (AG) (BU) (AG)
                 (AU) (BU) (BU) (AG) (BG) (AG) (BU) (AG) (AG) (BU)
                 (AG) (BU) (AG) (BU) (BU) (AG) (BU) (AG) (AG) (BG)
                 (BU) (AU) (AG) (BU) (BU) (AG) (AU) (BU) (AG) (BG)
                 (AG) (BU) (AG) (BU) (AU) (AG) (BG) (AU) (AG) (BG)
                 (BU) (BG) (BU) (BU) (AU) (AG) (AU) (BU) (AG) (AG)
                 (BG) (BU) (BG) (BU) (AU) (AG) (AU) (AG) (BU) (AG)
                 (BU) (AG) (AG) (BU) (AG) (BU) (AG) (BU) (BG) (AU)
                 (AG) (BU) (BG) (BU) (AG) (AU) (BU) (BG) (BU) (AG)
                 (AU) (BG) (AU) (AG) (BU) (BU) (BG) (AG) (BU) (AG)
                 (BU) (AG) (AG) (BG) (AG) (BU) (BU) (AU) (BG) (AU)
                 (BU) (BG) (AG) (AU) (AG) (BU) (BU) (BG) (AG) (AG)
                 (BU) (AG) (AU) (AU) (BU) (AG) (BU) (BG) (AU) (AG)
                 (BU) (AG) (BU) (BG) (AU) (AG) (BG) (BU) (BG) (AU)
                 (AU) (AG) (BU) (AG) (BU) (BU) (BG) (AG) (BU) (AG)
                 (AU) (BG) (AG) (BU) (BU) (AG) (AU) (BG) (AG) (BU)
                 (BU) (BG) (AU) (BU) (AG) (AG) (BU) (BU) (AG) (AG)
                 (BU) (AG) (BU) (AG) (BU) (BU) (AG) (AG) (AG) (BU)
                 (AG) (BU) (BU) (AG) (BU) (AG) (AG) (BU) (BU) (AG)
                 (AG) (BU) (AG) (AG) (BU) (BU) (AG) (BU) (AG) (BU)
                 (AG) (AG) (BU) (AG) (BU) (BU) (BU) (AG) (BU) (AG)
                 (AG) (BU) (AG) (BU) (BU) (AG) (AG) (BU) (AG) (BU)
                 (AG) (BU) (AG) (BU) (AG) (BU) (AG) (BU) (AG) (BU)
                 (AG) (BU) (BU) (AG) (AG) (BU) (AG) (BU) (AG) (BU)
                 (BU) (AG) (AG) (BU) (BU) (AG) (AG) (BU) (AG) (BU)
 Beta  Orbitals:
       Occupied  (AG) (BU) (?A) (?A) (?A) (?A) (?A) (?A) (?A) (?A)
                 (?A) (?A) (?A) (?A) (?A) (?A) (?A) (?A) (AG) (BU)
                 (AG) (BU) (AG) (BU) (BU) (AG) (AG) (BU) (BU) (AG)
                 (BU) (AG) (AG) (BU) (AG) (BU) (AG) (AG) (BU) (BU)
                 (AG) (BU) (AU) (AG) (BU) (BU) (AG) (BG) (AG) (BU)
                 (BU) (AG) (AU) (BG) (AG) (AU) (BG) (BG) (AU)
       Virtual   (AU) (BG) (BG) (AU) (BG) (AU) (AG) (BU) (BU) (AG)
                 (AG) (AU) (AG) (BU) (BU) (BG) (BU) (AG) (AG) (BU)
                 (AG) (BU) (BU) (AU) (AG) (AG) (BU) (AG) (BU) (BG)
                 (BU) (AG) (BU) (BU) (AG) (AG) (BU) (AU) (AG) (BU)
                 (AG) (BU) (BG) (AG) (BG) (BU) (BU) (AG) (AU) (AG)
                 (BU) (AU) (AG) (BU) (BG) (AG) (BG) (BU) (AU) (AG)
                 (AG) (BU) (BG) (BU) (AU) (AU) (BU) (AG) (AG) (BU)
                 (BU) (AG) (BG) (BU) (AG) (AG) (BU) (BG) (BU) (AU)
                 (AG) (AG) (BU) (BU) (AG) (BU) (AU) (BG) (AG) (BU)
                 (AG) (AU) (BU) (BU) (AG) (BG) (AG) (BU) (AG) (AG)
                 (BU) (AG) (BU) (AG) (BU) (BU) (AG) (BU) (AG) (AG)
                 (BG) (BU) (AU) (AG) (BU) (BU) (AG) (BU) (AU) (AG)
                 (BG) (AG) (BU) (AG) (BU) (AG) (BG) (AU) (AU) (AG)
                 (BU) (BG) (BU) (BG) (BU) (AU) (AG) (AU) (BU) (AG)
                 (AG) (BU) (BG) (BG) (BU) (AU) (AG) (AU) (AG) (BU)
                 (AG) (BU) (AG) (AG) (BU) (AG) (BU) (AG) (BU) (BG)
                 (AU) (AG) (BU) (BG) (AG) (BU) (AU) (BU) (BG) (BU)
                 (AG) (AU) (BG) (AU) (AG) (BU) (BU) (BG) (AG) (AG)
                 (BU) (BU) (AG) (AG) (AG) (BG) (BU) (BU) (AU) (BG)
                 (AU) (BU) (BG) (AG) (AU) (AG) (BU) (BU) (BG) (AG)
                 (AG) (BU) (AG) (AU) (AU) (BU) (BU) (AG) (BG) (AU)
                 (AG) (BU) (AG) (BU) (BG) (AG) (AU) (BG) (BU) (BG)
                 (AU) (AU) (AG) (BU) (AG) (BU) (BU) (AG) (BG) (BU)
[...]
                    6          7          8          9         10
     6  C    0.000000
     7  C    4.228798   0.000000
     8  C    3.811339   2.835689   0.000000
     9  C    4.974858   2.448087   1.451705   0.000000
    10  C    5.102969   1.392999   2.461374   1.411917   0.000000
    11  C    6.298211   3.791751   2.523844   1.463783   2.509912
    12  C    6.620977   4.943383   2.882787   2.495380   3.797743
    13  C    5.772314   5.095202   2.448087   2.835689   4.247145
    14  C    4.379458   4.247145   1.411917   2.461374   3.741162
    15  H    4.846659   1.086674   3.922343   3.424112   2.146055
    16  H    2.167016   4.623759   5.403263   6.228503   5.869024
    17  H    3.408520   2.683679   4.661708   4.908337   4.073797
    18  H    2.137892   4.631702   2.786277   4.225229   4.938086
    19  H    1.085576   5.314345   4.681366   5.940450   6.162343
    20  H    6.145998   2.129702   3.451727   2.169693   1.082687
    21  H    6.386492   6.152664   3.424112   3.922343   5.333684
    22  H    4.002095   4.900323   2.169693   3.451727   4.625386
    23  C    7.504517   4.369105   3.836671   2.529846   2.976130
    24  H    7.629770   4.011241   4.225229   2.786277   2.678737
    25  C    8.019188   6.230470   4.303382   3.803551   4.984680
    26  H    8.448275   7.109710   4.908337   4.661708   5.930589
    27  C    8.976784   6.580030   5.171758   4.318288   5.222052
    28  H   10.023054   7.650959   6.228503   5.403263   6.283986
    29  C    8.743203   5.772314   4.974858   3.811339   4.379458
    30  H    9.653690   6.394426   5.940450   4.681366   5.017378
                   11         12         13         14         15
    11  C    0.000000
    12  C    1.431689   0.000000
    13  C    2.462090   1.423783   0.000000
    14  C    2.856084   2.461494   1.392999   0.000000
    15  H    4.654911   5.902488   6.152664   5.333684   0.000000
    16  H    7.672700   8.285385   7.650959   6.283986   4.766494
    17  H    6.348862   7.318103   7.109710   5.930589   2.436210
    18  H    5.223028   5.125843   4.011241   2.678737   5.567936
    19  H    7.201535   7.382248   6.394426   5.017378   5.916337
    20  H    2.741929   4.161860   4.900323   4.625386   2.436520
    21  H    3.441819   2.167920   1.086674   2.146055   7.218807
    22  H    3.938122   3.425031   2.129702   1.082687   5.973878
    23  C    1.411977   2.434383   3.736028   4.266994   4.996566
    24  H    2.177356   3.430971   4.631702   4.938086   4.428978
    25  C    2.476122   1.420942   2.468634   3.752797   7.127480
    26  H    3.452571   2.167624   2.683679   4.073797   8.055435
    27  C    2.855136   2.444925   3.744958   4.906045   7.336387
    28  H    3.940073   3.431009   4.623759   5.869024   8.382834
    29  C    2.452155   2.805016   4.228798   5.102969   6.386492
    30  H    3.427393   3.890563   5.314345   6.162343   6.870440
                   16         17         18         19         20
    16  H    0.000000
    17  H    2.494689   0.000000
    18  H    4.297050   4.978696   0.000000
    19  H    2.494243   4.308064   2.442855   0.000000
    20  H    6.750527   4.725424   6.013362   7.214876   0.000000
    21  H    8.382834   8.055435   4.428978   6.870440   5.973878
    22  H    6.077370   6.165079   1.992465   4.434437   5.580011
    23  C    8.675488   7.046896   6.591988   8.460289   2.651470
    24  H    8.545953   6.674153   7.008876   8.645521   1.992465
    25  C    9.706271   8.690334   6.429908   8.746912   5.134300
    26  H   10.270437   9.462512   6.674153   9.075271   6.165079
    27  C   10.492834   9.189681   7.568406   9.788365   5.076416
    28  H   11.570288  10.270437   8.545953  10.810409   6.077370
    29  C   10.023054   8.448275   7.629770   9.653690   4.002095
    30  H   10.810409   9.075271   8.645521  10.597208   4.434437
                   21         22         23         24         25
    21  H    0.000000
    22  H    2.436520   0.000000
    23  C    4.599605   5.348309   0.000000
    24  H    5.567936   6.013362   1.083653   0.000000
    25  C    2.680855   4.597781   2.809603   3.892406   0.000000
    26  H    2.436210   4.725424   3.895801   4.978696   1.086294
    27  C    4.071116   5.842879   2.444669   3.409159   1.394871
    28  H    4.766494   6.750527   3.426095   4.297050   2.157882
    29  C    4.846659   6.145998   1.403731   2.137892   2.418013
    30  H    5.916337   7.214876   2.154148   2.442855   3.402104
                   26         27         28         29         30
    26  H    0.000000
    27  C    2.158770   0.000000
    28  H    2.494689   1.084977   0.000000
    29  C    3.408520   1.407162   2.167016   0.000000
    30  H    4.308064   2.163167   2.494243   1.085576   0.000000
 Stoichiometry    C18H12(1+,2)
 Framework group  C2H[SGH(C18H12)]
 Deg. of freedom    29
 Full point group                 C2H     NOp   4
 Largest Abelian subgroup         C2H     NOp   4
 Largest concise Abelian subgroup C2      NOp   2
                         Standard orientation:                         
 ---------------------------------------------------------------------
 Center     Atomic     Atomic              Coordinates (Angstroms)
 Number     Number      Type              X           Y           Z
 ---------------------------------------------------------------------
    1          6             0        0.515403    4.680261    0.000000
    2          6             0       -0.666682    3.939761    0.000000
    3          6             0       -0.628305    2.519337    0.000000
    4          6             0        0.624979    1.827228    0.000000
    5          6             0        1.804634    2.603174    0.000000
    6          6             0        1.750428    4.005858    0.000000
    7          6             0       -1.836346    1.765816    0.000000
    8          6             0        0.628305    0.363449    0.000000
    9          6             0       -0.628305   -0.363449    0.000000
   10          6             0       -1.833052    0.372821    0.000000
   11          6             0       -0.624979   -1.827228    0.000000
   12          6             0        0.628305   -2.519337    0.000000
   13          6             0        1.836346   -1.765816    0.000000
   14          6             0        1.833052   -0.372821    0.000000
   15          1             0       -2.784724    2.296325    0.000000
   16          1             0        0.484699    5.764803    0.000000
   17          1             0       -1.630130    4.441560    0.000000
   18          1             0        2.780806    2.132652    0.000000
   19          1             0        2.675921    4.573254    0.000000
   20          1             0       -2.786481   -0.140195    0.000000
   21          1             0        2.784724   -2.296325    0.000000
   22          1             0        2.786481    0.140195    0.000000
   23          6             0       -1.804634   -2.603174    0.000000
   24          1             0       -2.780806   -2.132652    0.000000
   25          6             0        0.666682   -3.939761    0.000000
   26          1             0        1.630130   -4.441560    0.000000
   27          6             0       -0.515403   -4.680261    0.000000
   28          1             0       -0.484699   -5.764803    0.000000
   29          6             0       -1.750428   -4.005858    0.000000
   30          1             0       -2.675921   -4.573254    0.000000
 ---------------------------------------------------------------------
 Rotational constants (GHZ):      1.2584296      0.2588084      0.2146612
 Leave Link  202 at Mon Apr 06 10:40:25 2009, MaxMem=  209715200 cpu:       0.0
 (Enter C:\G03W\l301.exe)
 Standard basis: EPR-II (5D, 7F)
 There are   153 symmetry adapted basis functions of AG  symmetry.
 There are    42 symmetry adapted basis functions of BG  symmetry.
 There are    42 symmetry adapted basis functions of AU  symmetry.
 There are   153 symmetry adapted basis functions of BU  symmetry.
 Integral buffers will be    262144 words long.
 Raffenetti 2 integral format.
 Two-electron integral symmetry is turned on.
   390 basis functions,   666 primitive gaussians,   408 cartesian basis functions
    60 alpha electrons       59 beta electrons
       nuclear repulsion energy      1130.7093726931 Hartrees.
 IExCor= 402 DFT=T Ex=B+HF Corr=LYP ExCW=0 ScaHFX=  0.200000
 ScaDFX=  0.800000  0.720000  1.000000  0.810000
 IRadAn=      0 IRanWt=     -1 IRanGd=            0 ICorTp=0
 NAtoms=   30 NActive=   30 NUniq=   15 SFac= 5.66D+00 NAtFMM=   60 Big=F
 Leave Link  301 at Mon Apr 06 10:40:29 2009, MaxMem=  209715200 cpu:       0.0
 (Enter C:\G03W\l302.exe)
 NPDir=0 NMtPBC=     1 NCelOv=     1 NCel=       1 NClECP=     1 NCelD=      1
         NCelK=      1 NCelE2=     1 NClLst=     1 CellRange=     0.0.
 One-electron integrals computed using PRISM.
 One-electron integral symmetry used in STVInt
 NBasis=   390 RedAO= T  NBF=   153    42    42   153
 NBsUse=   390 1.00D-06 NBFU=   153    42    42   153
 Precomputing XC quadrature grid using
 IXCGrd= 2 IRadAn=           0 IRanWt=          -1 IRanGd=           0.
 NRdTot=    1938 NPtTot=      246932 NUsed=      255714 NTot=      255730
 NSgBfM=   381   381   381   381.
 Leave Link  302 at Mon Apr 06 10:40:36 2009, MaxMem=  209715200 cpu:       4.0
 (Enter C:\G03W\l303.exe)
 DipDrv:  MaxL=1.
 Leave Link  303 at Mon Apr 06 10:40:39 2009, MaxMem=  209715200 cpu:       0.0
 (Enter C:\G03W\l401.exe)
 SCF N**3 symmetry information disabled.
 Initial guess read from the read-write file:
 Guess basis will be translated and rotated to current coordinates.
 Initial guess orbital symmetries:
 Alpha Orbitals:
       Occupied  (AG) (BU) (AG) (BU) (AG) (BU) (BU) (AG) (AG) (BU)
                 (BU) (AG) (AG) (BU) (BU) (AG) (AG) (BU) (AG) (BU)
                 (AG) (BU) (AG) (BU) (BU) (AG) (AG) (BU) (BU) (AG)
                 (BU) (AG) (AG) (BU) (AG) (BU) (AG) (BU) (AG) (BU)
                 (AG) (BU) (AG) (AU) (BU) (BU) (AG) (BG) (AG) (BU)
                 (BU) (AU) (AG) (BG) (AG) (AU) (BG) (BG) (AU) (AU)
       Virtual   (BG) (BG) (AU) (BG) (AU) (AG) (BU) (AU) (BU) (AG)
                 (AG) (AG) (BG) (BU) (BU) (BU) (AG) (AG) (BU) (BU)
                 (AG) (AU) (BU) (AG) (AG) (BU) (BG) (AG) (BU) (BU)
                 (AG) (BU) (BU) (AG) (BU) (AG) (AG) (BU) (AU) (AG)
                 (BU) (AG) (BG) (BU) (BG) (AG) (BU) (AG) (BU) (AU)
                 (AU) (AG) (BU) (BG) (AG) (BU) (AG) (BG) (AG) (BU)
                 (AU) (BU) (AU) (AU) (BG) (BU) (AG) (AG) (BU) (BU)
                 (BG) (AG) (BU) (AG) (BU) (AG) (BG) (AG) (BU) (AU)
                 (AG) (BU) (BU) (AG) (BU) (AU) (AG) (BG) (BU) (AG)
                 (BU) (AU) (BU) (AG) (BU) (BG) (AG) (AG) (AG) (BU)
                 (AG) (BU) (AG) (BU) (AG) (BU) (BU) (AG) (AG) (BG)
                 (BU) (AU) (AG) (BU) (BU) (AG) (BU) (AU) (AG) (AG)
                 (BG) (BU) (AG) (BU) (BG) (AU) (AG) (BU) (AU) (AG)
                 (BG) (BU) (BU) (BG) (AU) (AG) (AU) (AG) (BU) (AG)
                 (BG) (BU) (BG) (AU) (BU) (AU) (AG) (AG) (BU) (AG)
                 (AG) (BU) (AG) (BU) (AG) (BU) (BG) (AG) (AU) (BU)
                 (AG) (BU) (BG) (AG) (BU) (AU) (BU) (BG) (BU) (AG)
                 (AU) (BG) (AU) (AG) (BU) (BU) (BG) (AG) (AG) (BU)
                 (AG) (BU) (AG) (BU) (AG) (BG) (BU) (AG) (BG) (AU)
                 (BU) (BU) (AU) (AG) (AU) (BG) (BU) (AG) (BG) (AG)
                 (BU) (AG) (AU) (BU) (AG) (AU) (AU) (BU) (AG) (BG)
                 (BU) (AG) (BU) (BG) (AU) (AG) (BU) (BG) (BG) (AG)
                 (AU) (BU) (AU) (AG) (BU) (BU) (AG) (BG) (BU) (AG)
                 (BG) (AU) (AG) (BU) (BU) (AG) (AU) (AG) (BG) (BU)
                 (BU) (BG) (AU) (AG) (AG) (BU) (AG) (BU) (BU) (AG)
                 (BU) (AG) (BU) (AG) (BU) (AG) (BU) (AG) (AG) (BU)
                 (BU) (AG) (BU) (AG) (BU) (AG) (AG) (BU) (BU) (AG)
                 (AG) (BU) (AG) (AG) (BU) (BU) (AG) (BU) (AG) (BU)
                 (AG) (AG) (BU) (BU) (AG) (BU) (BU) (AG) (BU) (AG)
                 (AG) (BU) (AG) (BU) (BU) (AG) (AG) (BU) (AG) (BU)
                 (AG) (BU) (AG) (BU) (AG) (BU) (AG) (BU) (AG) (BU)
                 (AG) (BU) (BU) (AG) (AG) (BU) (AG) (BU) (AG) (BU)
                 (BU) (AG) (AG) (BU) (BU) (AG) (AG) (BU) (AG) (BU)
 Beta  Orbitals:
       Occupied  (AG) (BU) (BU) (AG) (AG) (BU) (BU) (AG) (AG) (BU)
                 (BU) (AG) (BU) (AG) (BU) (AG) (BU) (AG) (AG) (BU)
                 (AG) (BU) (AG) (BU) (BU) (AG) (AG) (BU) (BU) (AG)
                 (BU) (AG) (AG) (BU) (AG) (BU) (AG) (BU) (AG) (BU)
                 (AG) (BU) (AG) (BU) (AU) (BU) (AG) (AG) (BG) (BU)
                 (BU) (AG) (AU) (AG) (BG) (AU) (BG) (BG) (AU)
       Virtual   (AU) (BG) (BG) (AU) (BG) (AU) (AG) (BU) (BU) (AU)
                 (AG) (AG) (AG) (BG) (BU) (BU) (BU) (AG) (AG) (BU)
                 (BU) (AG) (AU) (BU) (AG) (AG) (BU) (AG) (BG) (BU)
                 (BU) (AG) (BU) (BU) (AG) (BU) (AG) (AG) (BU) (AU)
                 (AG) (BU) (AG) (BU) (BG) (AG) (BG) (BU) (AG) (BU)
                 (AU) (AG) (AU) (BU) (AG) (BG) (BU) (AG) (AG) (BU)
                 (BG) (AU) (BU) (AU) (BG) (AU) (AG) (BU) (AG) (BU)
                 (BU) (BG) (AG) (BU) (AG) (BU) (AG) (BG) (AG) (BU)
                 (AU) (AG) (BU) (BU) (AG) (BU) (AU) (AG) (BG) (BU)
                 (AG) (BU) (AU) (BU) (AG) (BU) (BG) (AG) (AG) (AG)
                 (BU) (AG) (BU) (AG) (BU) (AG) (BU) (BU) (AG) (AG)
                 (BG) (BU) (AG) (BU) (AU) (BU) (AG) (BU) (AU) (AG)
                 (AG) (BG) (BU) (AG) (BU) (BG) (AG) (AU) (BU) (AU)
                 (AG) (BG) (BU) (BU) (BG) (AG) (AU) (AU) (AG) (BU)
                 (AG) (BG) (BU) (BG) (BU) (AU) (AU) (AG) (AG) (BU)
                 (AG) (AG) (BU) (AG) (BU) (AG) (BU) (BG) (AG) (AU)
                 (BU) (AG) (BU) (BG) (AG) (BU) (AU) (BU) (BG) (BU)
                 (AG) (AU) (BG) (AU) (AG) (BU) (BU) (BG) (AG) (AG)
                 (BU) (AG) (BU) (AG) (BU) (AG) (BG) (BU) (AG) (BG)
                 (AU) (BU) (BU) (AU) (AG) (AU) (BG) (BU) (AG) (BG)
                 (AG) (BU) (AG) (AU) (BU) (AG) (AU) (BU) (AG) (AU)
                 (BG) (BU) (AG) (BU) (BG) (AU) (AG) (BU) (BG) (BG)
                 (AG) (BU) (AU) (AU) (AG) (BU) (BU) (AG) (BG) (BU)
                 (AG) (BG) (AU) (AG) (BU) (BU) (AG) (AU) (AG) (BU)
                 (BG) (BU) (BG) (AU) (AG) (AG) (BU) (AG) (BU) (BU)
                 (AG) (BU) (AG) (BU) (AG) (BU) (AG) (BU) (AG) (AG)
                 (BU) (BU) (AG) (BU) (AG) (BU) (AG) (AG) (BU) (BU)
                 (AG) (AG) (BU) (AG) (AG) (BU) (BU) (AG) (BU) (AG)
                 (BU) (AG) (AG) (BU) (BU) (AG) (BU) (BU) (AG) (BU)
                 (AG) (AG) (BU) (AG) (BU) (BU) (AG) (AG) (BU) (AG)
                 (BU) (AG) (BU) (AG) (BU) (AG) (BU) (AG) (BU) (AG)
                 (BU) (AG) (BU) (BU) (AG) (AG) (BU) (AG) (BU) (AG)
                 (BU) (BU) (AG) (AG) (BU) (BU) (AG) (AG) (BU) (AG)
                 (BU)
 The electronic state of the initial guess is 2-AU.
 <S**2> of initial guess= 0.7638
 Leave Link  401 at Mon Apr 06 10:40:50 2009, MaxMem=  209715200 cpu:       6.0
 (Enter C:\G03W\l502.exe)
 UHF open shell SCF:
 Requested convergence on RMS density matrix=1.00D-08 within 128 cycles.
 Requested convergence on MAX density matrix=1.00D-06.
 Requested convergence on             energy=1.00D-06.
 No special actions if energy rises.
 Using DIIS extrapolation, IDIIS=  1040.
 Integral symmetry usage will be decided dynamically.
       255713 words used for storage of precomputed grid.
 IEnd=    818865 IEndB=    818865 NGot= 209715200 MDV= 209079848
 LenX= 209079848
 Fock matrices will be formed incrementally for  20 cycles.

 Cycle   1  Pass 1  IDiag  1:
 Petite list used in FoFDir.
 MinBra= 0 MaxBra= 2 Meth= 1.
 IRaf=       0 NMat=   1 IRICut=       1 DoRegI=T DoRafI=F ISym2E= 1 JSym2E=1.
 E= -692.996307310917    
 DIIS: error= 1.70D-06 at cycle   1 NSaved=   1.
 NSaved= 1 IEnMin= 1 EnMin= -692.996307310917     IErMin= 1 ErrMin= 1.70D-06
 ErrMax= 1.70D-06 EMaxC= 1.00D-01 BMatC= 1.11D-08 BMatP= 1.11D-08
 IDIUse=1 WtCom= 1.00D+00 WtEn= 0.00D+00
 Coeff-Com:  0.100D+01
 Coeff:      0.100D+01
 Gap=     0.144 Goal=   None    Shift=    0.000
 Gap=     0.062 Goal=   None    Shift=    0.000
 RMSDP=8.86D-07 MaxDP=2.07D-05              OVMax= 1.72D-05

 Cycle   2  Pass 1  IDiag  1:
 RMSU=  8.85D-07    CP:  1.00D+00
 E= -692.996307313686     Delta-E=       -0.000000002770 Rises=F Damp=F
 DIIS: error= 5.30D-07 at cycle   2 NSaved=   2.
 NSaved= 2 IEnMin= 2 EnMin= -692.996307313686     IErMin= 2 ErrMin= 5.30D-07
 ErrMax= 5.30D-07 EMaxC= 1.00D-01 BMatC= 7.61D-10 BMatP= 1.11D-08
 IDIUse=1 WtCom= 1.00D+00 WtEn= 0.00D+00
 Coeff-Com:  0.633D-01 0.937D+00
 Coeff:      0.633D-01 0.937D+00
 Gap=     0.144 Goal=   None    Shift=    0.000
 Gap=     0.062 Goal=   None    Shift=    0.000
 RMSDP=1.14D-07 MaxDP=6.08D-06 DE=-2.77D-09 OVMax= 1.67D-05

 Cycle   3  Pass 1  IDiag  1:
 RMSU=  1.09D-07    CP:  1.00D+00  1.04D+00
 E= -692.996307313298     Delta-E=        0.000000000388 Rises=F Damp=F
 DIIS: error= 1.31D-06 at cycle   3 NSaved=   3.
 NSaved= 3 IEnMin= 2 EnMin= -692.996307313686     IErMin= 2 ErrMin= 5.30D-07
 ErrMax= 1.31D-06 EMaxC= 1.00D-01 BMatC= 1.37D-09 BMatP= 7.61D-10
 IDIUse=1 WtCom= 1.00D+00 WtEn= 0.00D+00
 Coeff-Com: -0.158D-01 0.585D+00 0.431D+00
 Coeff:     -0.158D-01 0.585D+00 0.431D+00
 Gap=     0.144 Goal=   None    Shift=    0.000
 Gap=     0.062 Goal=   None    Shift=    0.000
 RMSDP=7.39D-08 MaxDP=4.51D-06 DE= 3.88D-10 OVMax= 1.32D-05

 Cycle   4  Pass 1  IDiag  1:
 RMSU=  3.95D-08    CP:  1.00D+00  1.05D+00  4.44D-01
 E= -692.996307313148     Delta-E=        0.000000000151 Rises=F Damp=F
 DIIS: error= 3.61D-07 at cycle   4 NSaved=   4.
 NSaved= 4 IEnMin= 2 EnMin= -692.996307313686     IErMin= 4 ErrMin= 3.61D-07
 ErrMax= 3.61D-07 EMaxC= 1.00D-01 BMatC= 4.68D-11 BMatP= 7.61D-10
 IDIUse=1 WtCom= 1.00D+00 WtEn= 0.00D+00
 Coeff-Com: -0.115D-01 0.180D+00 0.206D+00 0.625D+00
 Coeff:     -0.115D-01 0.180D+00 0.206D+00 0.625D+00
 Gap=     0.144 Goal=   None    Shift=    0.000
 Gap=     0.062 Goal=   None    Shift=    0.000
 RMSDP=1.96D-08 MaxDP=9.35D-07 DE= 1.51D-10 OVMax= 4.27D-06

 Cycle   5  Pass 1  IDiag  1:
 RMSU=  1.34D-08    CP:  1.00D+00  1.05D+00  5.24D-01  7.28D-01
 E= -692.996307312641     Delta-E=        0.000000000507 Rises=F Damp=F
 DIIS: error= 1.95D-07 at cycle   5 NSaved=   5.
 NSaved= 5 IEnMin= 2 EnMin= -692.996307313686     IErMin= 5 ErrMin= 1.95D-07
 ErrMax= 1.95D-07 EMaxC= 1.00D-01 BMatC= 1.64D-11 BMatP= 4.68D-11
 IDIUse=1 WtCom= 1.00D+00 WtEn= 0.00D+00
 Coeff-Com: -0.627D-02 0.714D-01 0.103D+00 0.433D+00 0.399D+00
 Coeff:     -0.627D-02 0.714D-01 0.103D+00 0.433D+00 0.399D+00
 Gap=     0.144 Goal=   None    Shift=    0.000
 Gap=     0.062 Goal=   None    Shift=    0.000
 RMSDP=7.64D-09 MaxDP=4.68D-07 DE= 5.07D-10 OVMax= 1.42D-06

 SCF Done:  E(UB+HF-LYP) =  -692.996307313     A.U. after    5 cycles
             Convg  =    0.7638D-08             -V/T =  2.0085
             S**2   =   0.7638
 KE= 6.871220698758D+02 PE=-3.848325885052D+03 EE= 1.337498135171D+03
 Annihilation of the first spin contaminant:
 S**2 before annihilation     0.7638,   after     0.7502
 Leave Link  502 at Mon Apr 06 11:02:15 2009, MaxMem=  209715200 cpu:    1280.0
 (Enter C:\G03W\l701.exe)
 Compute integral first derivatives.
 ... and contract with generalized density number  0.
 Leave Link  701 at Mon Apr 06 11:02:21 2009, MaxMem=  209715200 cpu:       2.0
 (Enter C:\G03W\l702.exe)
 L702 exits ... SP integral derivatives will be done elsewhere.
 Leave Link  702 at Mon Apr 06 11:02:25 2009, MaxMem=  209715200 cpu:       0.0
