 Entering Gaussian System, Link 0=g03
 Initial command:
 /home/system/software/orac/g03_E.01/g03/l1.exe /scratch/pbs.75778.orac/Gau-182266.inp -scrdir=/scratch/pbs.75778.orac/
 Entering Link 1 = /home/system/software/orac/g03_E.01/g03/l1.exe PID=    182267.
  
 Copyright (c) 1988,1990,1992,1993,1995,1998,2003,2004,2007, Gaussian, Inc.
                  All Rights Reserved.
  
 This is the Gaussian(R) 03 program.  It is based on the
 the Gaussian(R) 98 system (copyright 1998, Gaussian, Inc.),
 the Gaussian(R) 94 system (copyright 1995, Gaussian, Inc.),
 the Gaussian 92(TM) system (copyright 1992, Gaussian, Inc.),
 the Gaussian 90(TM) system (copyright 1990, Gaussian, Inc.),
 the Gaussian 88(TM) system (copyright 1988, Gaussian, Inc.),
 the Gaussian 86(TM) system (copyright 1986, Carnegie Mellon
 University), and the Gaussian 82(TM) system (copyright 1983,
 Carnegie Mellon University). Gaussian is a federally registered
 trademark of Gaussian, Inc.
  
 This software contains proprietary and confidential information,
 including trade secrets, belonging to Gaussian, Inc.
  
 This software is provided under written license and may be
 used, copied, transmitted, or stored only in accord with that
 written license.
  
 The following legend is applicable only to US Government
 contracts under FAR:
  
                    RESTRICTED RIGHTS LEGEND
  
 Use, reproduction and disclosure by the US Government is
 subject to restrictions as set forth in subparagraphs (a)
 and (c) of the Commercial Computer Software - Restricted
 Rights clause in FAR 52.227-19.
  
 Gaussian, Inc.
 340 Quinnipiac St., Bldg. 40, Wallingford CT 06492
  
  
 ---------------------------------------------------------------
 Warning -- This program may not be used in any manner that
 competes with the business of Gaussian, Inc. or will provide
 assistance to any competitor of Gaussian, Inc.  The licensee
 of this program is prohibited from giving any competitor of
 Gaussian, Inc. access to this program.  By using this program,
 the user acknowledges that Gaussian, Inc. is engaged in the
 business of creating and licensing software in the field of
 computational chemistry and represents and warrants to the
 licensee that it is not a competitor of Gaussian, Inc. and that
 it will not use this program in any manner prohibited above.
 ---------------------------------------------------------------
  

 Cite this work as:
 Gaussian 03, Revision E.01,
 M. J. Frisch, G. W. Trucks, H. B. Schlegel, G. E. Scuseria, 
 M. A. Robb, J. R. Cheeseman, J. A. Montgomery, Jr., T. Vreven, 
 K. N. Kudin, J. C. Burant, J. M. Millam, S. S. Iyengar, J. Tomasi, 
 V. Barone, B. Mennucci, M. Cossi, G. Scalmani, N. Rega, 
 G. A. Petersson, H. Nakatsuji, M. Hada, M. Ehara, K. Toyota, 
 R. Fukuda, J. Hasegawa, M. Ishida, T. Nakajima, Y. Honda, O. Kitao, 
 H. Nakai, M. Klene, X. Li, J. E. Knox, H. P. Hratchian, J. B. Cross, 
 V. Bakken, C. Adamo, J. Jaramillo, R. Gomperts, R. E. Stratmann, 
 O. Yazyev, A. J. Austin, R. Cammi, C. Pomelli, J. W. Ochterski, 
 P. Y. Ayala, K. Morokuma, G. A. Voth, P. Salvador, J. J. Dannenberg, 
 V. G. Zakrzewski, S. Dapprich, A. D. Daniels, M. C. Strain, 
 O. Farkas, D. K. Malick, A. D. Rabuck, K. Raghavachari, 
 J. B. Foresman, J. V. Ortiz, Q. Cui, A. G. Baboul, S. Clifford, 
 J. Cioslowski, B. B. Stefanov, G. Liu, A. Liashenko, P. Piskorz, 
 I. Komaromi, R. L. Martin, D. J. Fox, T. Keith, M. A. Al-Laham, 
 C. Y. Peng, A. Nanayakkara, M. Challacombe, P. M. W. Gill, 
 B. Johnson, W. Chen, M. W. Wong, C. Gonzalez, and J. A. Pople, 
 Gaussian, Inc., Wallingford CT, 2004.
 
 ******************************************
 Gaussian 03:  IA64L-G03RevE.01 11-Sep-2007
                25-Aug-2010 
 ******************************************
 %Mem=5GB
 %NProcShared=8
 Will use up to    8 processors via shared memory.
 ----------------------------------------------------------------------
 #p nmr=(giao,spinspin,mixed) b3lyp/6-31+g(d) scf=tight nosymm integral
 =(grid=ultrafine)
 ----------------------------------------------------------------------
 1/38=1/1;
 2/15=1,17=6,18=5,40=1/2;
 3/5=1,6=6,7=11,10=1100000,11=2,16=1,25=1,30=1,74=-5,75=5/1,2,8,3;
 4//1;
 5/5=2,32=2,38=5/2;
 8/6=1,10=90,11=11/1;
 10/13=100,31=1,45=16,47=3/2;
 6/7=2,8=2,9=2,10=2,28=1/1;
 99/9=1/99;
 Leave Link    1 at Wed Aug 25 12:18:32 2010, MaxMem=  671088640 cpu:       1.6
 (Enter /home/system/software/orac/g03_E.01/g03/l101.exe)
 ---------------------------------
 Camphor NMR shielding parameters.
 ---------------------------------
 Symbolic Z-matrix:
 Charge =  0 Multiplicity = 1
 C                     0.16471   0.42266   3.17587 
 C                    -1.38914   0.48215   3.0645 
 C                    -1.62001   1.15432   1.68372 
 C                     0.65389   1.06706   1.84783 
 C                    -1.27152   0.11179   0.59247 
 C                     0.30395  -0.00474   0.76057 
 C                    -0.43581   2.17935   1.61927 
 C                    -0.27117   2.98523   0.31217 
 C                    -0.51461   3.23905   2.74134 
 O                    -1.61775   0.62408  -0.69986 
 C                    -2.03678  -1.21577   0.69228 
 O                     0.9174    0.18341  -0.52026 
 C                     2.0567   -0.64238  -0.80033 
 C                     2.48317  -0.41528  -2.22862 
 C                     1.83477  -1.08081  -3.27873 
 C                     2.2112   -0.85614  -4.60444 
 C                     3.24709   0.0373   -4.89528 
 C                     3.90182   0.70347  -3.85587 
 C                     3.51964   0.47727  -2.53087 
 N                    -3.30038  -1.13853   1.14092 
 C                    -4.05355  -2.24376   1.13097 
 C                    -3.60159  -3.48629   0.68153 
 C                    -2.29027  -3.57033   0.21341 
 C                    -1.49982  -2.4217    0.21689 
 C                     2.11445   1.50054   1.86949 
 H                     0.54073  -0.60232   3.28905 
 H                     0.53859   0.98817   4.03667 
 H                    -1.83221   1.07973   3.86663 
 H                    -1.85362  -0.50343   3.12595 
 H                    -2.62133   1.56691   1.54592 
 H                     0.58689  -0.99857   1.12829 
 H                    -1.20673   3.50062   0.06534 
 H                     0.50248   3.75226   0.45154 
 H                     0.01374   2.38621  -0.54862 
 H                    -0.65909   2.83565   3.74583 
 H                    -1.35073   3.92067   2.53942 
 H                     0.39738   3.84841   2.7594 
 H                    -0.85268   0.45491  -1.2814 
 H                     2.87478  -0.39569  -0.1121 
 H                     1.78677  -1.69772  -0.64047 
 H                     1.03024  -1.77891  -3.05623 
 H                     1.70045  -1.37954  -5.4087 
 H                     3.54364   0.21079  -5.92659 
 H                     4.7088    1.39787  -4.07551 
 H                     4.0293    0.9993   -1.72383 
 H                    -5.0702   -2.12816   1.50422 
 H                    -4.25675  -4.35266   0.69861 
 H                    -1.889    -4.51293  -0.15129 
 H                    -0.48252  -2.46399  -0.15993 
 H                     2.42758   1.91974   0.90699 
 H                     2.27761   2.26561   2.63815 
 H                     2.77866   0.65889   2.10814 
 
                    Isotopes and Nuclear Properties:
 (Nuclear quadrupole moments (NQMom) in fm**2, nuclear magnetic moments (NMagM)
  in nuclear magnetons)

  Atom         1           2           3           4           5           6           7           8           9          10
 IAtWgt=          12          12          12          12          12          12          12          12          12          16
 AtmWgt=  12.0000000  12.0000000  12.0000000  12.0000000  12.0000000  12.0000000  12.0000000  12.0000000  12.0000000  15.9949146
 NucSpn=           0           0           0           0           0           0           0           0           0           0
 AtZEff=   0.0000000   0.0000000   0.0000000   0.0000000   0.0000000   0.0000000   0.0000000   0.0000000   0.0000000   0.0000000
 NQMom=    0.0000000   0.0000000   0.0000000   0.0000000   0.0000000   0.0000000   0.0000000   0.0000000   0.0000000   0.0000000
 NMagM=    0.0000000   0.0000000   0.0000000   0.0000000   0.0000000   0.0000000   0.0000000   0.0000000   0.0000000   0.0000000

  Atom        11          12          13          14          15          16          17          18          19          20
 IAtWgt=          12          16          12          12          12          12          12          12          12          14
 AtmWgt=  12.0000000  15.9949146  12.0000000  12.0000000  12.0000000  12.0000000  12.0000000  12.0000000  12.0000000  14.0030740
 NucSpn=           0           0           0           0           0           0           0           0           0           2
 AtZEff=   0.0000000   0.0000000   0.0000000   0.0000000   0.0000000   0.0000000   0.0000000   0.0000000   0.0000000   0.0000000
 NQMom=    0.0000000   0.0000000   0.0000000   0.0000000   0.0000000   0.0000000   0.0000000   0.0000000   0.0000000   2.0440000
 NMagM=    0.0000000   0.0000000   0.0000000   0.0000000   0.0000000   0.0000000   0.0000000   0.0000000   0.0000000   0.4037610

  Atom        21          22          23          24          25          26          27          28          29          30
 IAtWgt=          12          12          12          12          12           1           1           1           1           1
 AtmWgt=  12.0000000  12.0000000  12.0000000  12.0000000  12.0000000   1.0078250   1.0078250   1.0078250   1.0078250   1.0078250
 NucSpn=           0           0           0           0           0           1           1           1           1           1
 AtZEff=   0.0000000   0.0000000   0.0000000   0.0000000   0.0000000   0.0000000   0.0000000   0.0000000   0.0000000   0.0000000
 NQMom=    0.0000000   0.0000000   0.0000000   0.0000000   0.0000000   0.0000000   0.0000000   0.0000000   0.0000000   0.0000000
 NMagM=    0.0000000   0.0000000   0.0000000   0.0000000   0.0000000   2.7928460   2.7928460   2.7928460   2.7928460   2.7928460

  Atom        31          32          33          34          35          36          37          38          39          40
 IAtWgt=           1           1           1           1           1           1           1           1           1           1
 AtmWgt=   1.0078250   1.0078250   1.0078250   1.0078250   1.0078250   1.0078250   1.0078250   1.0078250   1.0078250   1.0078250
 NucSpn=           1           1           1           1           1           1           1           1           1           1
 AtZEff=   0.0000000   0.0000000   0.0000000   0.0000000   0.0000000   0.0000000   0.0000000   0.0000000   0.0000000   0.0000000
 NQMom=    0.0000000   0.0000000   0.0000000   0.0000000   0.0000000   0.0000000   0.0000000   0.0000000   0.0000000   0.0000000
 NMagM=    2.7928460   2.7928460   2.7928460   2.7928460   2.7928460   2.7928460   2.7928460   2.7928460   2.7928460   2.7928460

  Atom        41          42          43          44          45          46          47          48          49          50
 IAtWgt=           1           1           1           1           1           1           1           1           1           1
 AtmWgt=   1.0078250   1.0078250   1.0078250   1.0078250   1.0078250   1.0078250   1.0078250   1.0078250   1.0078250   1.0078250
 NucSpn=           1           1           1           1           1           1           1           1           1           1
 AtZEff=   0.0000000   0.0000000   0.0000000   0.0000000   0.0000000   0.0000000   0.0000000   0.0000000   0.0000000   0.0000000
 NQMom=    0.0000000   0.0000000   0.0000000   0.0000000   0.0000000   0.0000000   0.0000000   0.0000000   0.0000000   0.0000000
 NMagM=    2.7928460   2.7928460   2.7928460   2.7928460   2.7928460   2.7928460   2.7928460   2.7928460   2.7928460   2.7928460

  Atom        51          52
 IAtWgt=           1           1
 AtmWgt=   1.0078250   1.0078250
 NucSpn=           1           1
 AtZEff=   0.0000000   0.0000000
 NQMom=    0.0000000   0.0000000
 NMagM=    2.7928460   2.7928460
 Leave Link  101 at Wed Aug 25 12:18:33 2010, MaxMem=  671088640 cpu:       0.5
 (Enter /home/system/software/orac/g03_E.01/g03/l202.exe)
 Symmetry turned off by external request.
 Stoichiometry    C22H27NO2
 Framework group  C1[X(C22H27NO2)]
 Deg. of freedom   150
 Full point group                 C1
                         Standard orientation:                         
 ---------------------------------------------------------------------
 Center     Atomic     Atomic              Coordinates (Angstroms)
 Number     Number      Type              X           Y           Z
 ---------------------------------------------------------------------
    1          6             0        0.164712    0.422661    3.175874
    2          6             0       -1.389141    0.482152    3.064499
    3          6             0       -1.620009    1.154319    1.683718
    4          6             0        0.653889    1.067059    1.847835
    5          6             0       -1.271524    0.111795    0.592467
    6          6             0        0.303946   -0.004739    0.760572
    7          6             0       -0.435814    2.179351    1.619272
    8          6             0       -0.271173    2.985233    0.312170
    9          6             0       -0.514608    3.239051    2.741335
   10          8             0       -1.617754    0.624082   -0.699857
   11          6             0       -2.036777   -1.215775    0.692284
   12          8             0        0.917402    0.183410   -0.520259
   13          6             0        2.056696   -0.642377   -0.800329
   14          6             0        2.483167   -0.415285   -2.228617
   15          6             0        1.834773   -1.080810   -3.278734
   16          6             0        2.211200   -0.856137   -4.604436
   17          6             0        3.247086    0.037296   -4.895278
   18          6             0        3.901818    0.703475   -3.855875
   19          6             0        3.519641    0.477268   -2.530866
   20          7             0       -3.300383   -1.138527    1.140918
   21          6             0       -4.053545   -2.243758    1.130969
   22          6             0       -3.601590   -3.486295    0.681527
   23          6             0       -2.290265   -3.570331    0.213408
   24          6             0       -1.499815   -2.421700    0.216893
   25          6             0        2.114452    1.500536    1.869485
   26          1             0        0.540732   -0.602319    3.289047
   27          1             0        0.538593    0.988171    4.036665
   28          1             0       -1.832212    1.079726    3.866629
   29          1             0       -1.853623   -0.503433    3.125947
   30          1             0       -2.621334    1.566906    1.545915
   31          1             0        0.586887   -0.998574    1.128292
   32          1             0       -1.206726    3.500617    0.065342
   33          1             0        0.502482    3.752263    0.451543
   34          1             0        0.013739    2.386209   -0.548620
   35          1             0       -0.659088    2.835654    3.745831
   36          1             0       -1.350727    3.920675    2.539424
   37          1             0        0.397379    3.848408    2.759397
   38          1             0       -0.852675    0.454913   -1.281401
   39          1             0        2.874777   -0.395692   -0.112104
   40          1             0        1.786770   -1.697722   -0.640474
   41          1             0        1.030240   -1.778912   -3.056230
   42          1             0        1.700453   -1.379540   -5.408701
   43          1             0        3.543637    0.210785   -5.926590
   44          1             0        4.708802    1.397865   -4.075509
   45          1             0        4.029301    0.999297   -1.723826
   46          1             0       -5.070198   -2.128156    1.504225
   47          1             0       -4.256753   -4.352660    0.698615
   48          1             0       -1.888996   -4.512929   -0.151292
   49          1             0       -0.482522   -2.463989   -0.159935
   50          1             0        2.427578    1.919741    0.906988
   51          1             0        2.277606    2.265611    2.638146
   52          1             0        2.778658    0.658889    2.108136
 ---------------------------------------------------------------------
 Rotational constants (GHZ):      0.3028465      0.1662637      0.1224350
 Leave Link  202 at Wed Aug 25 12:18:33 2010, MaxMem=  671088640 cpu:       0.4
 (Enter /home/system/software/orac/g03_E.01/g03/l301.exe)
 Standard basis: 6-31+G(d) (6D, 7F)
 Converting basis for Fermi contact spin-spin IFCMod=1.
 AO basis functions are being uncontracted.
 Integral buffers will be    131072 words long.
 Raffenetti 2 integral format.
 Two-electron integral symmetry is turned off.
  1066 basis functions,  1066 primitive gaussians,  1066 cartesian basis functions
    91 alpha electrons       91 beta electrons
       nuclear repulsion energy      2292.6951307392 Hartrees.
 IExCor= 402 DFT=T Ex=B+HF Corr=LYP ExCW=0 ScaHFX=  0.200000
 ScaDFX=  0.800000  0.720000  1.000000  0.810000
 IRadAn=      5 IRanWt=     -1 IRanGd=            0 ICorTp=0
 NAtoms=   52 NActive=   52 NUniq=   52 SFac= 7.50D-01 NAtFMM=   80 NAOKFM=F Big=F
 Leave Link  301 at Wed Aug 25 12:18:33 2010, MaxMem=  671088640 cpu:       0.6
 (Enter /home/system/software/orac/g03_E.01/g03/l302.exe)
 NPDir=0 NMtPBC=     1 NCelOv=     1 NCel=       1 NClECP=     1 NCelD=      1
         NCelK=      1 NCelE2=     1 NClLst=     1 CellRange=     0.0.
 One-electron integrals computed using PRISM.
 NBasis=  1066 RedAO= T  NBF=  1066
 NBsUse=  1064 1.00D-06 NBFU=  1064
 Precomputing XC quadrature grid using
 IXCGrd= 2 IRadAn=           5 IRanWt=          -1 IRanGd=           0.
 NRdTot=    4465 NPtTot=     1204788 NUsed=     1236252 NTot=     1236284
 NSgBfM=   740   745   745   745.
 Leave Link  302 at Wed Aug 25 12:18:41 2010, MaxMem=  671088640 cpu:      29.5
 (Enter /home/system/software/orac/g03_E.01/g03/l308.exe)
 Leave Link  308 at Wed Aug 25 12:18:42 2010, MaxMem=  671088640 cpu:       2.7
 (Enter /home/system/software/orac/g03_E.01/g03/l303.exe)
 DipDrv:  MaxL=1.
 Leave Link  303 at Wed Aug 25 12:18:43 2010, MaxMem=  671088640 cpu:       2.6
 (Enter /home/system/software/orac/g03_E.01/g03/l401.exe)
 Harris functional with IExCor=  402 diagonalized for initial guess.
 ExpMin= 4.38D-02 ExpMax= 4.94D+04 ExpMxC= 4.94D+04 IAcc=3 IRadAn=         5 AccDes= 0.00D+00
 HarFok:  IExCor= 402 AccDes= 0.00D+00 IRadAn=         5 IDoV=1
 ScaDFX=  1.000000  1.000000  1.000000  1.000000
 Harris En= -1060.24942110666    
 Leave Link  401 at Wed Aug 25 12:19:04 2010, MaxMem=  671088640 cpu:     117.4
 (Enter /home/system/software/orac/g03_E.01/g03/l502.exe)
 Closed shell SCF:
 Requested convergence on RMS density matrix=1.00D-08 within 128 cycles.
 Requested convergence on MAX density matrix=1.00D-06.
 Requested convergence on             energy=1.00D-06.
 No special actions if energy rises.
 Using DIIS extrapolation, IDIIS=  1040.
 Two-electron integral symmetry not used.
      1236251 words used for storage of precomputed grid.
 IEnd=   5245100 IEndB=   5245100 NGot= 671088640 MDV= 666997603
 LenX= 666997603
 Fock matrices will be formed incrementally for  20 cycles.

 Cycle   1  Pass 1  IDiag  1:
 Symmetry not used in FoFDir.
 MinBra= 0 MaxBra= 2 Meth= 1.
 IRaf=       0 NMat=   1 IRICut=       1 DoRegI=T DoRafI=F ISym2E= 0 JSym2E=0.
 E= -1059.08912017989    
 DIIS: error= 2.89D-02 at cycle   1 NSaved=   1.
 NSaved= 1 IEnMin= 1 EnMin= -1059.08912017989     IErMin= 1 ErrMin= 2.89D-02
 ErrMax= 2.89D-02 EMaxC= 1.00D-01 BMatC= 9.68D-01 BMatP= 9.68D-01
 IDIUse=3 WtCom= 7.11D-01 WtEn= 2.89D-01
 Coeff-Com:  0.100D+01
 Coeff-En:   0.100D+01
 Coeff:      0.100D+01
 Gap=     0.243 Goal=   None    Shift=    0.000
 GapD=    0.243 DampG=1.000 DampE=0.500 DampFc=0.5000 IDamp=-1.
 Damping current iteration by 5.00D-01
 RMSDP=5.42D-02 MaxDP=1.35D+01              OVMax= 2.02D-01

 Cycle   2  Pass 1  IDiag  1:
 RMSU=  1.79D-02    CP:  1.88D+00
 E= -1059.41859776332     Delta-E=       -0.329477583437 Rises=F Damp=T
 DIIS: error= 6.38D-03 at cycle   2 NSaved=   2.
 NSaved= 2 IEnMin= 2 EnMin= -1059.41859776332     IErMin= 2 ErrMin= 6.38D-03
 ErrMax= 6.38D-03 EMaxC= 1.00D-01 BMatC= 7.61D-02 BMatP= 9.68D-01
 IDIUse=3 WtCom= 9.36D-01 WtEn= 6.38D-02
 Coeff-Com:  0.591D-01 0.941D+00
 Coeff-En:   0.196D+00 0.804D+00
 Coeff:      0.678D-01 0.932D+00
 Gap=     0.277 Goal=   None    Shift=    0.000
 RMSDP=2.28D-02 MaxDP=5.13D+00 DE=-3.29D-01 OVMax= 1.55D-01

 Cycle   3  Pass 1  IDiag  1:
 RMSU=  4.04D-03    CP:  1.17D+00  1.54D-01
 E= -1059.88402761019     Delta-E=       -0.465429846869 Rises=F Damp=F
 DIIS: error= 4.83D-03 at cycle   3 NSaved=   3.
 NSaved= 3 IEnMin= 3 EnMin= -1059.88402761019     IErMin= 3 ErrMin= 4.83D-03
 ErrMax= 4.83D-03 EMaxC= 1.00D-01 BMatC= 4.11D-02 BMatP= 7.61D-02
 IDIUse=3 WtCom= 9.52D-01 WtEn= 4.83D-02
 Coeff-Com: -0.510D-01 0.406D+00 0.645D+00
 Coeff-En:   0.000D+00 0.000D+00 0.100D+01
 Coeff:     -0.486D-01 0.386D+00 0.662D+00
 Gap=     0.220 Goal=   None    Shift=    0.000
 RMSDP=3.28D-03 MaxDP=4.67D-01 DE=-4.65D-01 OVMax= 3.65D-02

 Cycle   4  Pass 1  IDiag  1:
 RMSU=  2.33D-03    CP:  1.22D+00  2.42D-01  6.98D-01
 E= -1059.91060864029     Delta-E=       -0.026581030098 Rises=F Damp=F
 DIIS: error= 3.30D-03 at cycle   4 NSaved=   4.
 NSaved= 4 IEnMin= 4 EnMin= -1059.91060864029     IErMin= 4 ErrMin= 3.30D-03
 ErrMax= 3.30D-03 EMaxC= 1.00D-01 BMatC= 1.12D-02 BMatP= 4.11D-02
 IDIUse=3 WtCom= 9.67D-01 WtEn= 3.30D-02
 Coeff-Com: -0.391D-01 0.122D+00 0.386D+00 0.531D+00
 Coeff-En:   0.000D+00 0.000D+00 0.204D+00 0.796D+00
 Coeff:     -0.378D-01 0.118D+00 0.380D+00 0.540D+00
 Gap=     0.214 Goal=   None    Shift=    0.000
 RMSDP=1.19D-03 MaxDP=2.17D-01 DE=-2.66D-02 OVMax= 2.32D-02

 Cycle   5  Pass 1  IDiag  1:
 RMSU=  7.90D-04    CP:  1.18D+00  2.26D-01  6.96D-01  8.42D-01
 E= -1059.92014800367     Delta-E=       -0.009539363383 Rises=F Damp=F
 DIIS: error= 1.49D-03 at cycle   5 NSaved=   5.
 NSaved= 5 IEnMin= 5 EnMin= -1059.92014800367     IErMin= 5 ErrMin= 1.49D-03
 ErrMax= 1.49D-03 EMaxC= 1.00D-01 BMatC= 6.51D-04 BMatP= 1.12D-02
 IDIUse=3 WtCom= 9.85D-01 WtEn= 1.49D-02
 Coeff-Com: -0.167D-01 0.368D-01 0.150D+00 0.280D+00 0.550D+00
 Coeff-En:   0.000D+00 0.000D+00 0.000D+00 0.000D+00 0.100D+01
 Coeff:     -0.165D-01 0.363D-01 0.147D+00 0.276D+00 0.557D+00
 Gap=     0.210 Goal=   None    Shift=    0.000
 RMSDP=3.53D-04 MaxDP=9.25D-02 DE=-9.54D-03 OVMax= 1.23D-02

 Cycle   6  Pass 1  IDiag  1:
 RMSU=  2.12D-04    CP:  1.19D+00  2.30D-01  7.28D-01  8.30D-01  8.04D-01
 E= -1059.92057978966     Delta-E=       -0.000431785990 Rises=F Damp=F
 DIIS: error= 8.56D-04 at cycle   6 NSaved=   6.
 NSaved= 6 IEnMin= 6 EnMin= -1059.92057978966     IErMin= 6 ErrMin= 8.56D-04
 ErrMax= 8.56D-04 EMaxC= 1.00D-01 BMatC= 1.83D-04 BMatP= 6.51D-04
 IDIUse=3 WtCom= 9.91D-01 WtEn= 8.56D-03
 Coeff-Com: -0.647D-02 0.101D-01 0.528D-01 0.124D+00 0.384D+00 0.436D+00
 Coeff-En:   0.000D+00 0.000D+00 0.000D+00 0.000D+00 0.252D+00 0.748D+00
 Coeff:     -0.642D-02 0.996D-02 0.523D-01 0.123D+00 0.383D+00 0.438D+00
 Gap=     0.210 Goal=   None    Shift=    0.000
 RMSDP=1.42D-04 MaxDP=4.20D-02 DE=-4.32D-04 OVMax= 5.15D-03

 Cycle   7  Pass 1  IDiag  1:
 RMSU=  6.22D-05    CP:  1.19D+00  2.28D-01  7.25D-01  8.35D-01  8.06D-01
                    CP:  5.98D-01
 E= -1059.92076091248     Delta-E=       -0.000181122817 Rises=F Damp=F
 DIIS: error= 8.46D-05 at cycle   7 NSaved=   7.
 NSaved= 7 IEnMin= 7 EnMin= -1059.92076091248     IErMin= 7 ErrMin= 8.46D-05
 ErrMax= 8.46D-05 EMaxC= 1.00D-01 BMatC= 3.00D-06 BMatP= 1.83D-04
 IDIUse=1 WtCom= 1.00D+00 WtEn= 0.00D+00
 Coeff-Com: -0.195D-02 0.254D-02 0.154D-01 0.408D-01 0.142D+00 0.197D+00
 Coeff-Com:  0.604D+00
 Coeff:     -0.195D-02 0.254D-02 0.154D-01 0.408D-01 0.142D+00 0.197D+00
 Coeff:      0.604D+00
 Gap=     0.210 Goal=   None    Shift=    0.000
 RMSDP=2.85D-05 MaxDP=4.93D-03 DE=-1.81D-04 OVMax= 5.97D-04

 Cycle   8  Pass 1  IDiag  1:
 RMSU=  2.01D-05    CP:  1.19D+00  2.27D-01  7.24D-01  8.34D-01  8.20D-01
                    CP:  5.79D-01  9.00D-01
 E= -1059.92076307494     Delta-E=       -0.000002162457 Rises=F Damp=F
 DIIS: error= 3.60D-05 at cycle   8 NSaved=   8.
 NSaved= 8 IEnMin= 8 EnMin= -1059.92076307494     IErMin= 8 ErrMin= 3.60D-05
 ErrMax= 3.60D-05 EMaxC= 1.00D-01 BMatC= 6.03D-07 BMatP= 3.00D-06
 IDIUse=1 WtCom= 1.00D+00 WtEn= 0.00D+00
 Coeff-Com: -0.137D-03-0.140D-04 0.821D-03 0.494D-02 0.233D-01 0.463D-01
 Coeff-Com:  0.339D+00 0.586D+00
 Coeff:     -0.137D-03-0.140D-04 0.821D-03 0.494D-02 0.233D-01 0.463D-01
 Coeff:      0.339D+00 0.586D+00
 Gap=     0.210 Goal=   None    Shift=    0.000
 RMSDP=8.92D-06 MaxDP=1.25D-03 DE=-2.16D-06 OVMax= 1.75D-04

 Cycle   9  Pass 1  IDiag  1:
 RMSU=  7.15D-06    CP:  1.19D+00  2.27D-01  7.24D-01  8.35D-01  8.18D-01
                    CP:  5.66D-01  8.98D-01  8.33D-01
 E= -1059.92076355511     Delta-E=       -0.000000480170 Rises=F Damp=F
 DIIS: error= 1.15D-05 at cycle   9 NSaved=   9.
 NSaved= 9 IEnMin= 9 EnMin= -1059.92076355511     IErMin= 9 ErrMin= 1.15D-05
 ErrMax= 1.15D-05 EMaxC= 1.00D-01 BMatC= 4.32D-08 BMatP= 6.03D-07
 IDIUse=1 WtCom= 1.00D+00 WtEn= 0.00D+00
 Coeff-Com:  0.450D-04-0.159D-03-0.538D-03 0.138D-03 0.367D-02 0.122D-01
 Coeff-Com:  0.137D+00 0.307D+00 0.541D+00
 Coeff:      0.450D-04-0.159D-03-0.538D-03 0.138D-03 0.367D-02 0.122D-01
 Coeff:      0.137D+00 0.307D+00 0.541D+00
 Gap=     0.210 Goal=   None    Shift=    0.000
 RMSDP=3.36D-06 MaxDP=9.04D-04 DE=-4.80D-07 OVMax= 5.92D-05

 Cycle  10  Pass 1  IDiag  1:
 RMSU=  1.64D-06    CP:  1.19D+00  2.27D-01  7.24D-01  8.35D-01  8.18D-01
                    CP:  5.73D-01  9.18D-01  8.32D-01  7.86D-01
 E= -1059.92076358965     Delta-E=       -0.000000034543 Rises=F Damp=F
 DIIS: error= 4.12D-06 at cycle  10 NSaved=  10.
 NSaved=10 IEnMin=10 EnMin= -1059.92076358965     IErMin=10 ErrMin= 4.12D-06
 ErrMax= 4.12D-06 EMaxC= 1.00D-01 BMatC= 6.58D-09 BMatP= 4.32D-08
 IDIUse=1 WtCom= 1.00D+00 WtEn= 0.00D+00
 Coeff-Com:  0.347D-04-0.710D-04-0.387D-03-0.473D-03-0.579D-03 0.136D-02
 Coeff-Com:  0.340D-01 0.980D-01 0.315D+00 0.553D+00
 Coeff:      0.347D-04-0.710D-04-0.387D-03-0.473D-03-0.579D-03 0.136D-02
 Coeff:      0.340D-01 0.980D-01 0.315D+00 0.553D+00
 Gap=     0.210 Goal=   None    Shift=    0.000
 RMSDP=9.82D-07 MaxDP=2.19D-04 DE=-3.45D-08 OVMax= 2.43D-05

 Cycle  11  Pass 1  IDiag  1:
 RMSU=  7.24D-07    CP:  1.19D+00  2.27D-01  7.24D-01  8.35D-01  8.18D-01
                    CP:  5.73D-01  9.20D-01  8.48D-01  7.84D-01  7.73D-01
 E= -1059.92076359575     Delta-E=       -0.000000006104 Rises=F Damp=F
 DIIS: error= 1.26D-06 at cycle  11 NSaved=  11.
 NSaved=11 IEnMin=11 EnMin= -1059.92076359575     IErMin=11 ErrMin= 1.26D-06
 ErrMax= 1.26D-06 EMaxC= 1.00D-01 BMatC= 6.25D-10 BMatP= 6.58D-09
 IDIUse=1 WtCom= 1.00D+00 WtEn= 0.00D+00
 Coeff-Com:  0.136D-04-0.234D-04-0.165D-03-0.255D-03-0.531D-03-0.163D-03
 Coeff-Com:  0.790D-02 0.290D-01 0.132D+00 0.313D+00 0.519D+00
 Coeff:      0.136D-04-0.234D-04-0.165D-03-0.255D-03-0.531D-03-0.163D-03
 Coeff:      0.790D-02 0.290D-01 0.132D+00 0.313D+00 0.519D+00
 Gap=     0.210 Goal=   None    Shift=    0.000
 RMSDP=3.38D-07 MaxDP=7.42D-05 DE=-6.10D-09 OVMax= 8.37D-06

 Cycle  12  Pass 1  IDiag  1:
 RMSU=  1.45D-07    CP:  1.19D+00  2.27D-01  7.24D-01  8.35D-01  8.18D-01
                    CP:  5.73D-01  9.20D-01  8.48D-01  7.93D-01  7.87D-01
                    CP:  6.71D-01
 E= -1059.92076359634     Delta-E=       -0.000000000584 Rises=F Damp=F
 DIIS: error= 3.90D-07 at cycle  12 NSaved=  12.
 NSaved=12 IEnMin=12 EnMin= -1059.92076359634     IErMin=12 ErrMin= 3.90D-07
 ErrMax= 3.90D-07 EMaxC= 1.00D-01 BMatC= 6.75D-11 BMatP= 6.25D-10
 IDIUse=1 WtCom= 1.00D+00 WtEn= 0.00D+00
 Coeff-Com:  0.336D-05-0.459D-05-0.480D-04-0.868D-04-0.206D-03-0.233D-03
 Coeff-Com:  0.542D-03 0.420D-02 0.355D-01 0.106D+00 0.289D+00 0.565D+00
 Coeff:      0.336D-05-0.459D-05-0.480D-04-0.868D-04-0.206D-03-0.233D-03
 Coeff:      0.542D-03 0.420D-02 0.355D-01 0.106D+00 0.289D+00 0.565D+00
 Gap=     0.210 Goal=   None    Shift=    0.000
 RMSDP=1.67D-07 MaxDP=4.30D-05 DE=-5.84D-10 OVMax= 2.08D-06

 Cycle  13  Pass 1  IDiag  1:
 RMSU=  6.68D-08    CP:  1.19D+00  2.27D-01  7.24D-01  8.35D-01  8.18D-01
                    CP:  5.73D-01  9.20D-01  8.50D-01  8.00D-01  7.95D-01
                    CP:  6.87D-01  6.86D-01
 E= -1059.92076359638     Delta-E=       -0.000000000045 Rises=F Damp=F
 DIIS: error= 7.14D-08 at cycle  13 NSaved=  13.
 NSaved=13 IEnMin=13 EnMin= -1059.92076359638     IErMin=13 ErrMin= 7.14D-08
 ErrMax= 7.14D-08 EMaxC= 1.00D-01 BMatC= 4.98D-12 BMatP= 6.75D-11
 IDIUse=1 WtCom= 1.00D+00 WtEn= 0.00D+00
 Coeff-Com:  0.472D-06-0.296D-06-0.989D-05-0.226D-04-0.607D-04-0.106D-03
 Coeff-Com: -0.380D-03-0.493D-03 0.625D-02 0.247D-01 0.979D-01 0.283D+00
 Coeff-Com:  0.589D+00
 Coeff:      0.472D-06-0.296D-06-0.989D-05-0.226D-04-0.607D-04-0.106D-03
 Coeff:     -0.380D-03-0.493D-03 0.625D-02 0.247D-01 0.979D-01 0.283D+00
 Coeff:      0.589D+00
 Gap=     0.210 Goal=   None    Shift=    0.000
 RMSDP=3.43D-08 MaxDP=7.49D-06 DE=-4.50D-11 OVMax= 4.32D-07

 Cycle  14  Pass 1  IDiag  1:
 RMSU=  1.35D-08    CP:  1.19D+00  2.27D-01  7.24D-01  8.35D-01  8.18D-01
                    CP:  5.73D-01  9.20D-01  8.50D-01  7.99D-01  7.96D-01
                    CP:  6.94D-01  7.10D-01  7.39D-01
 E= -1059.92076359640     Delta-E=       -0.000000000019 Rises=F Damp=F
 DIIS: error= 2.27D-08 at cycle  14 NSaved=  14.
 NSaved=14 IEnMin=14 EnMin= -1059.92076359640     IErMin=14 ErrMin= 2.27D-08
 ErrMax= 2.27D-08 EMaxC= 1.00D-01 BMatC= 4.17D-13 BMatP= 4.98D-12
 IDIUse=1 WtCom= 1.00D+00 WtEn= 0.00D+00
 Coeff-Com:  0.491D-08 0.118D-06-0.109D-05-0.472D-05-0.157D-04-0.350D-04
 Coeff-Com: -0.232D-03-0.635D-03 0.904D-04 0.240D-02 0.222D-01 0.876D-01
 Coeff-Com:  0.286D+00 0.603D+00
 Coeff:      0.491D-08 0.118D-06-0.109D-05-0.472D-05-0.157D-04-0.350D-04
 Coeff:     -0.232D-03-0.635D-03 0.904D-04 0.240D-02 0.222D-01 0.876D-01
 Coeff:      0.286D+00 0.603D+00
 Gap=     0.210 Goal=   None    Shift=    0.000
 RMSDP=8.49D-09 MaxDP=1.71D-06 DE=-1.86D-11 OVMax= 1.34D-07

 Cycle  15  Pass 1  IDiag  1:
 RMSU=  4.13D-09    CP:  1.19D+00  2.27D-01  7.24D-01  8.35D-01  8.18D-01
                    CP:  5.73D-01  9.20D-01  8.50D-01  7.99D-01  7.97D-01
                    CP:  6.99D-01  7.07D-01  7.69D-01  8.28D-01
 E= -1059.92076359639     Delta-E=        0.000000000016 Rises=F Damp=F
 DIIS: error= 5.56D-09 at cycle  15 NSaved=  15.
 NSaved=15 IEnMin=14 EnMin= -1059.92076359640     IErMin=15 ErrMin= 5.56D-09
 ErrMax= 5.56D-09 EMaxC= 1.00D-01 BMatC= 2.99D-14 BMatP= 4.17D-13
 IDIUse=1 WtCom= 1.00D+00 WtEn= 0.00D+00
 Coeff-Com: -0.329D-07 0.715D-07 0.455D-06-0.735D-07-0.193D-05-0.532D-05
 Coeff-Com: -0.498D-04-0.203D-03-0.454D-03-0.145D-02-0.155D-03 0.968D-02
 Coeff-Com:  0.613D-01 0.258D+00 0.673D+00
 Coeff:     -0.329D-07 0.715D-07 0.455D-06-0.735D-07-0.193D-05-0.532D-05
 Coeff:     -0.498D-04-0.203D-03-0.454D-03-0.145D-02-0.155D-03 0.968D-02
 Coeff:      0.613D-01 0.258D+00 0.673D+00
 Gap=     0.210 Goal=   None    Shift=    0.000
 RMSDP=2.78D-09 MaxDP=6.60D-07 DE= 1.64D-11 OVMax= 3.66D-08

 SCF Done:  E(RB+HF-LYP) =  -1059.92076360     A.U. after   15 cycles
             Convg  =    0.2778D-08             -V/T =  2.0058
             S**2   =   0.0000
 KE= 1.053819950582D+03 PE=-7.048789158541D+03 EE= 2.642353313623D+03
 Leave Link  502 at Wed Aug 25 13:25:29 2010, MaxMem=  671088640 cpu:   22283.2
 (Enter /home/system/software/orac/g03_E.01/g03/l801.exe)
 Range of M.O.s used for correlation:     1  1064
 NBasis=  1066 NAE=    91 NBE=    91 NFC=     0 NFV=     0
 NROrb=   1064 NOA=    91 NOB=    91 NVA=   973 NVB=   973

 **** Warning!!: The largest alpha MO coefficient is  0.12647522D+03

 Leave Link  801 at Wed Aug 25 13:25:29 2010, MaxMem=  671088640 cpu:       0.4
 (Enter /home/system/software/orac/g03_E.01/g03/l1002.exe)
 Minotr:  Closed-shell wavefunction.
 DoAtom=TTTTTTTTTTTTTTTTTTTTTTTTTTTTTTTTTTTTTTTTTTTTTTTTTT
 DoAtom=TT
          Direct CPHF calculation.
          Solving linear equations simultaneously.
          Differentiating once with respect to Fermi-contact.
          Electric field/nuclear overlap derivatives assumed to be zero.
          Requested convergence is 1.0D-08 RMS, and 1.0D-07 maximum.
          Secondary convergence is 1.0D-12 RMS, and 1.0D-12 maximum.
          NewPWx=T KeepS1=F KeepF1=F KeepIn=T MapXYZ=F.
          MDV=     671088170 using IRadAn=       1.
 Generate precomputed XC quadrature information.
          There are  52 degrees of freedom in the 1st order CPHF.
    52 vectors were produced by pass  0.
 AX will form  52 AO Fock derivatives at one time.
 Symmetry not used in FoFDir.
 MinBra= 0 MaxBra= 2 Meth= 1.
 IRaf=       0 NMat=  52 IRICut=       2 DoRegI=T DoRafI=T ISym2E= 0 JSym2E=0.
 Raff turned off since only 33.24% of shell-pairs survive.
    52 vectors were produced by pass  1.
    52 vectors were produced by pass  2.
    52 vectors were produced by pass  3.
    52 vectors were produced by pass  4.
    52 vectors were produced by pass  5.
    52 vectors were produced by pass  6.
    25 vectors were produced by pass  7.
    15 vectors were produced by pass  8.
     1 vectors were produced by pass  9.
 Inv2:  IOpt= 1 Iter= 1 AM= 3.85D-15 Conv= 1.00D-12.
 Inverted reduced A of dimension  405 with in-core refinement.
 Max diff in FC couplings:  IJMax=    19    18 Diff= 1.38D-02 IJMaxR=    23    18 DiffR= 2.00D+00
 Fermi Contact (FC) contribution to K (Hz):
                1             2             3             4             5
      1  0.000000D+00
      2  0.144021D+02  0.000000D+00
      3  0.435246D-01  0.154435D+02  0.000000D+00
      4  0.155669D+02  0.232357D+00  0.338967D+01  0.000000D+00
      5 -0.105276D+00  0.185388D+00  0.198574D+02  0.149470D+01  0.000000D+00
      6  0.109184D+01  0.460620D-01  0.131300D+01  0.183381D+02  0.152991D+02
      7  0.155530D+01  0.776003D+00  0.158530D+02  0.150267D+02  0.881419D+00
      8  0.128391D+01  0.139204D+01  0.783901D-01  0.356778D+00  0.163640D+00
      9  0.882816D+00  0.111830D+01  0.462891D+00  0.773543D-01  0.170387D+01
     10 -0.141101D+00  0.211414D+01  0.647662D+01  0.667961D-01 -0.261187D+02
     11 -0.345977D-01  0.449460D+00  0.712611D+00  0.123434D+01  0.300532D+02
     12  0.520215D+00 -0.242550D+00  0.625232D-01  0.242040D+01  0.375697D+01
     13 -0.387059D-01 -0.727876D-02  0.812184D-01  0.609932D-01  0.111075D+01
     14  0.224747D-01 -0.464604D-02  0.388024D-01  0.321818D-01 -0.116976D-01
     15  0.309366D-02  0.121927D-02  0.267296D-03 -0.106446D-01  0.921113D-03
     16 -0.357545D-02 -0.106252D-02  0.210038D-02  0.419972D-03  0.400084D-02
     17  0.384393D-02  0.158945D-02 -0.696537D-03 -0.237958D-02 -0.152561D-02
     18 -0.224079D-02 -0.185877D-02  0.171901D-02  0.423509D-02  0.438687D-02
     19  0.551220D-02  0.157051D-02  0.970244D-03  0.566337D-02  0.244541D-02
     20  0.149326D+00  0.989152D+00  0.184361D+01  0.662785D+00  0.974356D+01
     21  0.711680D-02 -0.770848D-01 -0.160990D-01  0.111322D+00  0.276624D+01
     22  0.878257D-04  0.702232D-01  0.751094D-01 -0.846667D-02 -0.389535D+00
     23  0.365168D-02 -0.430689D-01  0.227082D+00 -0.109317D-01  0.126253D+01
     24 -0.156835D-02  0.789485D-02  0.604154D+00 -0.171672D-01  0.298694D+01
     25  0.604010D+00  0.172469D+01  0.129058D+01  0.189774D+02  0.115140D+01
     26  0.166903D+02 -0.103907D+00  0.188529D+00 -0.298365D+00 -0.334563D-01
     27  0.169443D+02 -0.470318D+00  0.196452D+00 -0.319188D+00 -0.989310D-01
     28 -0.451839D+00  0.169979D+02 -0.306206D+00  0.157875D+00  0.142181D+01
     29 -0.128904D+00  0.173322D+02 -0.335733D+00  0.244816D+00  0.679312D+00
     30  0.978848D+00 -0.404917D-01  0.192404D+02  0.946245D+00 -0.482843D+00
     31  0.646395D+00 -0.147723D-01  0.192889D+00  0.165109D-01 -0.556291D-01
     32  0.573058D-01 -0.305458D-01  0.299742D+00  0.904475D+00 -0.216989D-01
     33 -0.706142D-02  0.808780D-01  0.845349D+00  0.456288D-01 -0.333001D-01
     34 -0.123980D-01 -0.351874D-01  0.210450D-01  0.315408D+00 -0.160307D-02
     35  0.419132D-01  0.486776D-01  0.185353D+00  0.142800D+00 -0.390002D-01
     36  0.823579D-01 -0.295172D-01  0.220728D+00  0.998435D+00 -0.327408D-01
     37 -0.235681D-01  0.113224D+00  0.104440D+01  0.191601D+00  0.764003D-01
     38 -0.181219D-02  0.827946D-01  0.609024D+00  0.110453D-01 -0.390204D+00
     39  0.694410D-02  0.205082D-03  0.423313D-03  0.394395D-01 -0.219050D-01
     40  0.179139D-02 -0.688863D-03  0.575727D-02  0.245173D-01  0.325925D-01
     41 -0.695553D-03 -0.100384D-03  0.134022D-02  0.678512D-03  0.113019D-02
     42  0.288257D-03  0.156285D-03 -0.302147D-04 -0.442951D-03 -0.151603D-03
     43 -0.854958D-03 -0.287024D-03  0.128771D-03  0.376178D-03  0.227182D-03
     44  0.363139D-03  0.378008D-03  0.987997D-04 -0.124682D-03 -0.779067D-04
     45  0.609210D-04 -0.222894D-03  0.133195D-03  0.519519D-03  0.938139D-03
     46 -0.911023D-03  0.622331D-02  0.134618D-02 -0.190013D-02 -0.420497D-01
     47  0.151933D-02 -0.951791D-02 -0.766743D-03 -0.122793D-02  0.774711D-01
     48 -0.667839D-03  0.226243D-02  0.247913D-01  0.254172D-02  0.110060D+00
     49  0.109480D-02 -0.544476D-02  0.123757D-02  0.273243D-02  0.208385D+00
     50  0.130124D+01  0.147122D+00 -0.357062D-01 -0.510207D+00 -0.161267D-01
     51  0.291183D+00 -0.155625D-01 -0.339685D-01 -0.447756D+00  0.120103D+00
     52  0.254849D+00 -0.248477D-01 -0.139828D-01 -0.445396D+00 -0.232313D-01
                6             7             8             9            10
      6  0.000000D+00
      7  0.113413D+01  0.000000D+00
      8  0.162805D+00  0.173058D+02  0.000000D+00
      9  0.126000D+01  0.177420D+02  0.114012D+01  0.000000D+00
     10  0.657160D+00 -0.148108D+00  0.107518D+01  0.463897D-01  0.000000D+00
     11  0.207122D+01  0.137517D+01 -0.551244D-01  0.283582D+00  0.388808D+01
     12 -0.271707D+02 -0.353386D+00  0.172949D+01  0.204220D+00 -0.115385D+01
     13 -0.842992D+00  0.652979D-01  0.595245D-01  0.132054D-01  0.173697D-01
     14  0.211451D+01  0.133406D-01 -0.602795D-02 -0.263831D-02  0.853834D-02
     15 -0.448770D-01 -0.411380D-03  0.130045D-02  0.154395D-02 -0.799672D-02
     16  0.145744D-01 -0.511240D-03 -0.145057D-02 -0.724277D-03 -0.425815D-02
     17  0.169655D-01  0.664761D-03  0.133479D-02  0.488227D-03  0.403285D-02
     18  0.449524D-01  0.432430D-05 -0.177198D-02  0.169999D-03 -0.236560D-02
     19  0.315514D-01  0.141537D-02  0.322706D-02 -0.116694D-03  0.202178D-02
     20  0.230906D+01 -0.150182D-01 -0.607187D-02 -0.320560D-01  0.405130D+00
     21  0.366680D+00 -0.250767D-02 -0.269104D-02 -0.234555D-02 -0.448438D+00
     22  0.470937D-01  0.420950D-03  0.804960D-03 -0.289401D-02  0.483491D+00
     23  0.187292D-01  0.958370D-01 -0.823319D-02  0.555065D-01 -0.419623D+00
     24  0.735792D+00  0.212828D+00 -0.823862D-02  0.171118D+00  0.481877D+00
     25  0.779999D-01  0.619408D+00  0.310653D+00  0.260427D+00 -0.811302D-01
     26  0.964005D+00  0.720568D+00  0.675281D-01  0.593661D-01  0.206758D-01
     27  0.157462D+01  0.326917D-01 -0.342243D-01  0.662466D-01 -0.105981D-01
     28 -0.124275D+00  0.343087D-01 -0.375092D-01  0.874379D-01  0.257617D+00
     29 -0.410078D-01  0.862964D+00  0.747421D-01  0.748081D-01 -0.469431D-01
     30  0.922676D+00  0.999088D-01  0.112972D+00  0.112273D+00  0.419018D+00
     31  0.186542D+02  0.737022D+00 -0.328737D-01  0.144730D+00 -0.688581D-02
     32 -0.233160D-01 -0.465548D+00  0.164249D+02  0.160301D+00  0.547996D-01
     33 -0.736856D-02 -0.430491D+00  0.155523D+02  0.685121D+00  0.289782D+00
     34 -0.261628D-02 -0.368529D+00  0.171568D+02  0.149155D+01  0.355504D+00
     35 -0.394610D-01 -0.327581D+00  0.128909D+01  0.161431D+02  0.244960D-02
     36  0.227700D-01 -0.397534D+00  0.359654D+00  0.161977D+02 -0.166940D-03
     37 -0.433101D-01 -0.402874D+00  0.346073D+00  0.160656D+02 -0.913644D-02
     38  0.681251D+00 -0.153226D-01 -0.382671D-02  0.338832D-02  0.138078D+02
     39  0.557851D-01 -0.158981D-02 -0.273405D-02 -0.317812D-03  0.747745D-01
     40  0.360758D+00  0.619394D-02  0.228739D-01 -0.706798D-03 -0.412625D-02
     41  0.142507D-02 -0.345023D-04 -0.176088D-03 -0.128558D-03 -0.411250D-02
     42  0.517926D-02  0.563054D-05 -0.176663D-04  0.166345D-03  0.500216D-03
     43 -0.375068D-02 -0.353941D-04 -0.376884D-03 -0.523201D-04 -0.815637D-03
     44  0.916883D-02  0.177962D-03  0.314304D-03 -0.220298D-04  0.405089D-03
     45  0.211605D-02 -0.720759D-04 -0.306925D-03  0.385001D-04 -0.857903D-04
     46  0.198179D-01  0.410768D-02 -0.352162D-03 -0.534072D-03  0.457456D-01
     47 -0.999583D-02  0.806697D-03 -0.656718D-03  0.740803D-03 -0.920649D-01
     48 -0.266802D-02  0.455045D-02 -0.288546D-03  0.275292D-02  0.447897D-01
     49  0.441514D-01  0.219784D-01 -0.117929D-02  0.735767D-02 -0.108555D+00
     50  0.237018D+00  0.124377D+00  0.129001D-01 -0.131495D-01  0.530437D-03
     51  0.107640D+01  0.198362D+00 -0.125137D-01  0.194358D-01 -0.618694D-02
     52  0.160551D+00  0.969333D+00 -0.155962D-01 -0.219532D-01 -0.131759D-02
               11            12            13            14            15
     11  0.000000D+00
     12  0.171320D-01  0.000000D+00
     13 -0.443852D-01 -0.251998D+02  0.000000D+00
     14 -0.102150D-01  0.658494D+01  0.251697D+02  0.000000D+00
     15  0.283098D-02  0.830663D+00  0.178039D+01  0.323894D+02  0.000000D+00
     16 -0.352400D-02 -0.900316D+00  0.182212D+01 -0.346165D+00  0.320298D+02
     17  0.245644D-02  0.998821D+00 -0.327161D+00  0.387135D+01 -0.501091D+00
     18 -0.433204D-02 -0.752135D+00  0.201001D+01 -0.317445D+00  0.360308D+01
     19  0.383438D-02  0.100913D+01  0.233778D+01  0.327236D+02  0.500640D+00
     20  0.349829D+01  0.887062D+00  0.907541D-01  0.354726D-02  0.110156D-04
     21 -0.239635D+01  0.661325D-01  0.172767D-01  0.622344D-03  0.277685D-02
     22  0.536303D+01  0.363745D-01 -0.286679D-02  0.188994D-02 -0.237601D-02
     23 -0.738116D+00 -0.342144D-01  0.108298D-01 -0.956935D-03  0.101396D-02
     24  0.324324D+02  0.482673D-01  0.471845D-01  0.345366D-02  0.205687D-02
     25  0.660674D-01  0.445113D+00  0.215945D+00 -0.129668D-01  0.333073D-01
     26  0.219818D-02  0.129650D-01 -0.287279D-02  0.239668D-02  0.151489D-03
     27  0.757271D-02  0.324962D+00 -0.707243D-02  0.764321D-02  0.733143D-03
     28 -0.167119D-01 -0.394785D-01 -0.101228D-02 -0.578901D-03  0.452077D-04
     29 -0.268541D-01 -0.260726D-02  0.152023D-05 -0.644881D-04 -0.230286D-03
     30  0.304352D-01  0.307504D+00  0.438835D-01  0.704422D-02  0.323862D-03
     31  0.488302D+00  0.460899D+00  0.995971D+00 -0.172966D-01 -0.732029D-04
     32  0.161913D-01  0.547433D-01  0.652387D-02  0.145394D-04 -0.181562D-03
     33  0.166544D-01  0.154676D-01  0.177644D-02 -0.473444D-03  0.130136D-03
     34 -0.818917D-02  0.144408D+00  0.132187D-01 -0.622624D-03  0.826309D-04
     35 -0.119204D-02  0.106445D-01 -0.797033D-04 -0.664463D-04 -0.209531D-03
     36 -0.333915D-03 -0.221061D-02 -0.103933D-02  0.538193D-03 -0.113569D-03
     37  0.588921D-01 -0.361748D-02 -0.856616D-03 -0.435124D-04  0.465813D-04
     38  0.104906D-02 -0.114670D+01 -0.147379D-03 -0.856001D-03 -0.202718D-02
     39 -0.277507D-02  0.835069D+00  0.186877D+02 -0.323110D+00  0.901016D+00
     40 -0.403486D-02  0.659810D+00  0.179721D+02 -0.424326D+00  0.592935D+00
     41 -0.395156D-03 -0.196094D+00  0.605110D+00  0.327028D+00  0.205039D+02
     42  0.172916D-03  0.911522D-01  0.753911D-01  0.101044D+01  0.429358D+00
     43 -0.549226D-03 -0.188694D+00  0.651829D-01 -0.182649D+00  0.105274D+01
     44  0.295435D-03  0.981311D-01  0.803415D-01  0.101313D+01 -0.175906D+00
     45 -0.623625D-03 -0.187118D+00  0.653314D+00  0.325085D+00  0.861434D+00
     46  0.148083D+01  0.456403D-02 -0.705617D-03 -0.493126D-04 -0.246742D-03
     47 -0.160544D+00  0.137239D-02  0.260186D-03 -0.443221D-03  0.303574D-03
     48  0.856513D+00  0.295412D-02 -0.997196D-04  0.370668D-04 -0.177719D-03
     49  0.535824D+00  0.186815D-01  0.910046D-02 -0.137970D-02  0.277468D-02
     50  0.815209D-02  0.108313D-01  0.543323D-01 -0.367756D-03  0.278947D-02
     51  0.440000D-01  0.837397D-02  0.112940D+00  0.285643D-02  0.547136D-02
     52 -0.940352D-03 -0.122494D-01  0.900065D-01  0.624907D-02  0.490409D-02
               16            17            18            19            20
     16  0.000000D+00
     17  0.316354D+02  0.000000D+00
     18 -0.338475D+00  0.317229D+02  0.000000D+00
     19  0.361293D+01 -0.522975D+00  0.318272D+02  0.000000D+00
     20  0.159865D-02  0.265126D-03  0.209616D-02 -0.153271D-02  0.000000D+00
     21 -0.175852D-02  0.670385D-03 -0.177544D-02  0.180544D-02  0.386780D+01
     22  0.243642D-02 -0.163899D-02  0.300759D-02 -0.263725D-02 -0.286612D+01
     23 -0.270072D-03 -0.560942D-03  0.378038D-05  0.484359D-03  0.222788D+01
     24  0.266188D-03  0.287276D-02  0.133634D-02  0.193760D-01 -0.297208D+01
     25  0.180207D-02  0.451448D-02 -0.472757D-02  0.215884D-02  0.385267D+00
     26 -0.150652D-05  0.123169D-03 -0.479466D-04 -0.162562D-03  0.196814D-01
     27 -0.708679D-03  0.103732D-02 -0.709962D-03  0.858892D-03  0.391237D-01
     28 -0.757659D-04  0.248195D-03 -0.921705D-04 -0.947003D-04 -0.182218D-01
     29  0.550142D-04  0.953505D-04  0.538071D-04  0.108851D-04  0.241742D-01
     30 -0.528000D-03  0.541973D-03 -0.136338D-03  0.455645D-03  0.133034D+00
     31  0.223394D-02 -0.229332D-02  0.314658D-02  0.711658D-02  0.478188D-02
     32  0.171199D-03  0.000000D+00  0.332763D-03  0.237123D-03 -0.165828D-03
     33  0.798622D-04 -0.415255D-04  0.168371D-04 -0.129244D-03  0.305418D-02
     34  0.122560D-03  0.274121D-03  0.440817D-05  0.592916D-03  0.301422D-02
     35  0.260528D-04 -0.150320D-03 -0.272262D-04 -0.111553D-03  0.306901D-02
     36 -0.123099D-04  0.233547D-04  0.844637D-04  0.851598D-04  0.344715D-03
     37  0.546593D-04 -0.118105D-03  0.201983D-03  0.299068D-04  0.848781D-02
     38 -0.162828D-03  0.000000D+00 -0.147014D-04 -0.118176D-03 -0.393076D-01
     39  0.159712D+00  0.135957D-01  0.127471D-01  0.676450D+00 -0.405992D-03
     40 -0.326630D-01  0.507745D-01  0.100924D+00  0.822381D+00 -0.198815D-02
     41  0.377896D+00  0.101335D+01 -0.147805D+00  0.871120D+00 -0.539800D-03
     42  0.208402D+02  0.418941D+00  0.104793D+01 -0.174699D+00 -0.408027D-03
     43  0.439325D+00  0.208511D+02  0.434212D+00  0.104777D+01 -0.461360D-03
     44  0.104981D+01  0.415384D+00  0.208342D+02  0.433921D+00 -0.175475D-03
     45 -0.145054D+00  0.101158D+01  0.394574D+00  0.206178D+02  0.324183D-03
     46  0.166607D-03  0.146212D-03  0.902988D-04 -0.806299D-04  0.446838D+01
     47 -0.311454D-03  0.210563D-03 -0.386995D-03  0.325564D-03  0.426505D+00
     48  0.938334D-04  0.142632D-03  0.125571D-03  0.253920D-04 -0.822740D-01
     49  0.347499D-04  0.255368D-03  0.179625D-04  0.486994D-03  0.278975D+00
     50  0.473225D-03  0.386325D-03  0.450638D-03  0.488964D-02 -0.561016D-02
     51  0.133054D-02  0.122993D-03  0.370353D-04 -0.542795D-03  0.341542D-02
     52  0.115827D-02 -0.172420D-03 -0.948969D-04 -0.390405D-03 -0.499241D-02
               21            22            23            24            25
     21  0.000000D+00
     22  0.306198D+02  0.000000D+00
     23 -0.661525D+00  0.309748D+02  0.000000D+00
     24  0.548731D+01 -0.102054D+01  0.314798D+02  0.000000D+00
     25  0.397589D-01 -0.842170D-04 -0.932851D-03 -0.366713D-02  0.000000D+00
     26  0.136591D-02 -0.465207D-03  0.616640D-03 -0.733809D-03  0.353072D-01
     27  0.405362D-02 -0.724199D-03  0.126071D-02 -0.145746D-02  0.467915D+00
     28 -0.554546D-02  0.562662D-02 -0.629878D-02  0.163956D-01  0.645274D-02
     29 -0.701343D-03  0.314806D-02 -0.386905D-02  0.270750D-01 -0.828660D-02
     30  0.381499D-02  0.112145D-01 -0.562327D-02 -0.201730D-01  0.101874D+00
     31  0.123611D-01  0.315299D-02  0.877898D-03  0.522548D-01  0.352540D-01
     32  0.105645D-03  0.257934D-03  0.268037D-03 -0.121105D-02  0.996554D-02
     33 -0.493315D-03  0.777535D-03  0.260799D-04 -0.240187D-02  0.218055D-01
     34 -0.988605D-03  0.340094D-03 -0.718187D-03 -0.804439D-03 -0.102235D-02
     35 -0.447507D-03  0.519852D-03 -0.101839D-02 -0.223131D-02 -0.105769D-01
     36  0.628201D-04  0.370339D-03 -0.909694D-03 -0.277728D-02 -0.160427D-01
     37 -0.139311D-02  0.139906D-02  0.418401D-02  0.105552D-01  0.216512D-01
     38  0.214314D-02 -0.584669D-02  0.558658D-02 -0.260588D-02  0.655443D-02
     39  0.445884D-03  0.718766D-03  0.291121D-03  0.117237D-01  0.332369D-01
     40  0.912514D-03  0.744889D-03 -0.255368D-03  0.508789D-01 -0.234557D-02
     41  0.212882D-03  0.605024D-04  0.110835D-03  0.605854D-02 -0.788018D-03
     42  0.238785D-03 -0.291054D-03 -0.948273D-04  0.132365D-03  0.650330D-03
     43 -0.114863D-03  0.210386D-03  0.597552D-05  0.160075D-03 -0.274738D-03
     44  0.126855D-03 -0.301679D-03 -0.168712D-03  0.113286D-02  0.854765D-03
     45 -0.223415D-03  0.395484D-03  0.207878D-03 -0.451885D-03  0.691854D-02
     46  0.232752D+02  0.141030D+01  0.885694D+00 -0.217109D+00 -0.825114D-03
     47  0.715688D+00  0.212616D+02  0.408113D+00  0.891262D+00 -0.248197D-03
     48  0.921871D+00  0.357768D+00  0.208511D+02  0.410492D+00  0.622107D-04
     49 -0.947007D-01  0.830627D+00  0.319012D+00  0.205285D+02 -0.588092D-04
     50  0.609287D-04 -0.183825D-03 -0.371624D-03 -0.151552D-03  0.164024D+02
     51  0.313624D-02  0.793220D-03  0.130037D-03  0.680168D-02  0.161963D+02
     52 -0.747355D-03  0.135430D-03 -0.391965D-04  0.159690D-02  0.158305D+02
               26            27            28            29            30
     26  0.000000D+00
     27 -0.457028D+00  0.000000D+00
     28  0.152693D+00  0.418684D+00  0.000000D+00
     29  0.331755D+00  0.152940D+00 -0.506519D+00  0.000000D+00
     30 -0.990739D-02  0.147618D-01  0.173639D+00  0.168340D-01  0.000000D+00
     31 -0.151902D-01  0.118661D-01  0.225903D-02  0.140400D-02 -0.932457D-02
     32  0.306601D-01 -0.188073D-03  0.939549D-03  0.437728D-02 -0.719182D-02
     33  0.150003D-03  0.787822D-03  0.111606D-05  0.251739D-01 -0.139822D-01
     34  0.101834D-02  0.725485D-03  0.293984D-03 -0.165135D-02 -0.239157D-02
     35  0.199856D-02 -0.668872D-02 -0.134233D-01  0.996973D-03 -0.388175D-02
     36  0.472958D-03  0.784774D-02  0.265830D-03  0.971429D-03 -0.541323D-02
     37 -0.418926D-03  0.295808D-03  0.483781D-02 -0.429328D-04 -0.122697D-01
     38  0.118931D-02 -0.439892D-03  0.104329D-01  0.417938D-02 -0.149997D-02
     39  0.367406D-03  0.735672D-03  0.285261D-03  0.447065D-05 -0.120943D-02
     40 -0.231813D-03 -0.814799D-03  0.619770D-04  0.197939D-03  0.859775D-03
     41 -0.104401D-04 -0.172397D-03  0.263645D-04  0.154068D-05 -0.129862D-03
     42  0.780647D-05  0.837762D-04 -0.961455D-05 -0.600192D-05  0.825783D-04
     43 -0.145143D-04 -0.206871D-03  0.132322D-04  0.255431D-05 -0.121544D-03
     44  0.170930D-04  0.136925D-03 -0.131333D-04 -0.408592D-05  0.839236D-04
     45 -0.307269D-04 -0.255581D-03  0.222985D-04  0.197495D-04 -0.618967D-04
     46 -0.225858D-03 -0.385405D-03  0.597039D-03 -0.203018D-03  0.106419D-02
     47  0.651648D-04  0.195358D-03 -0.117998D-02 -0.653632D-03  0.789782D-03
     48 -0.177769D-03 -0.267553D-03  0.583296D-03  0.324530D-03 -0.789833D-03
     49  0.158558D-03  0.701734D-04 -0.147175D-02 -0.138503D-02 -0.102478D-03
     50 -0.185684D-01  0.527889D-02  0.340400D-02  0.113458D-01  0.164383D-02
     51 -0.608058D-02 -0.782395D-02 -0.117235D-02  0.430128D-02 -0.150718D-02
     52 -0.725417D-02 -0.428602D-02  0.105225D-02  0.374281D-03  0.340460D-01
               31            32            33            34            35
     31  0.000000D+00
     32  0.212871D-02  0.000000D+00
     33  0.292370D-02 -0.460971D+00  0.000000D+00
     34 -0.170587D-02 -0.494029D+00 -0.444968D+00  0.000000D+00
     35 -0.133918D-02 -0.485137D-02  0.367852D-01  0.172379D+00  0.000000D+00
     36  0.253449D-01 -0.237971D-02 -0.410790D-02  0.209777D-01 -0.460658D+00
     37  0.313560D-03 -0.854528D-02 -0.632752D-02  0.520351D-02 -0.434659D+00
     38 -0.417630D-02 -0.121323D-02 -0.409853D-02 -0.501591D-02 -0.170056D-04
     39  0.284585D-02 -0.629583D-04 -0.413819D-04 -0.209018D-03  0.100632D-04
     40 -0.123845D-01  0.618734D-03 -0.508505D-03 -0.231605D-02  0.527926D-04
     41  0.912653D-03  0.779160D-05 -0.129306D-04 -0.358692D-04  0.000000D+00
     42 -0.156377D-03 -0.386122D-05 -0.149413D-05  0.132681D-04  0.000000D+00
     43  0.406654D-03  0.504560D-05 -0.892027D-05 -0.509142D-04  0.000000D+00
     44 -0.146861D-04 -0.597388D-05 -0.103898D-05  0.200982D-04  0.000000D+00
     45  0.809826D-03  0.596648D-04  0.471445D-04  0.656893D-04  0.759932D-05
     46 -0.609202D-03  0.137478D-04  0.535744D-04  0.380450D-04  0.368016D-04
     47 -0.336703D-03  0.314062D-04 -0.354300D-04 -0.140169D-03 -0.965285D-04
     48  0.137186D-02  0.670097D-04  0.978861D-04  0.915075D-05  0.173347D-04
     49 -0.167311D-01 -0.408735D-05 -0.120346D-03 -0.145870D-03 -0.186150D-03
     50 -0.531977D-02  0.278177D-03  0.209858D-02  0.567950D-04  0.896134D-03
     51 -0.196141D-01  0.188810D-02  0.399977D-03  0.269217D-02  0.431323D-03
     52 -0.614402D-02 -0.482142D-02  0.136607D-02  0.652557D-03  0.860153D-03
               36            37            38            39            40
     36  0.000000D+00
     37 -0.503227D+00  0.000000D+00
     38 -0.864122D-04  0.106791D-02  0.000000D+00
     39 -0.897433D-04 -0.105489D-04 -0.548608D-02  0.000000D+00
     40  0.538159D-04  0.803905D-05  0.194603D-02 -0.288695D+00  0.000000D+00
     41  0.000000D+00 -0.225310D-05 -0.528447D-03 -0.123928D-02 -0.170825D-01
     42 -0.316105D-05  0.219525D-05 -0.120841D-04  0.112059D-01  0.453435D-02
     43  0.278287D-05  0.122020D-05  0.219022D-04 -0.307609D-02 -0.983492D-02
     44  0.795940D-05  0.000000D+00 -0.158127D-04  0.150043D-02  0.120131D-01
     45  0.530004D-05  0.000000D+00  0.426955D-04 -0.128910D-01 -0.776670D-02
     46 -0.235186D-04  0.600704D-04 -0.453404D-03 -0.196554D-04 -0.798091D-04
     47  0.296006D-04 -0.231960D-03  0.978671D-03 -0.113591D-03 -0.285198D-04
     48  0.872159D-04  0.731128D-03 -0.522009D-03  0.472924D-04  0.316376D-05
     49 -0.219284D-03 -0.705749D-04  0.145035D-02 -0.869703D-03 -0.577365D-02
     50  0.361877D-02  0.165921D-02 -0.303334D-03 -0.159001D-02  0.117437D-02
     51 -0.188608D-02 -0.614112D-02  0.784627D-03  0.120823D-02  0.126515D-02
     52 -0.125318D-02 -0.151748D-02  0.357532D-03 -0.498851D-02  0.347711D-03
               41            42            43            44            45
     41  0.000000D+00
     42  0.278626D+00  0.000000D+00
     43  0.365790D-01  0.270582D+00  0.000000D+00
     44  0.208675D-01  0.413374D-01  0.272542D+00  0.000000D+00
     45  0.597334D-01  0.204657D-01  0.370751D-01  0.276084D+00  0.000000D+00
     46 -0.282843D-04  0.106148D-05 -0.733489D-05  0.267873D-05 -0.526073D-05
     47  0.231600D-04  0.863448D-05 -0.586327D-05  0.588349D-05 -0.876389D-05
     48  0.305730D-04  0.126795D-05 -0.355447D-05  0.422636D-05 -0.251123D-05
     49  0.416231D-03  0.673264D-04  0.402791D-04 -0.277864D-04  0.582709D-05
     50  0.674585D-04  0.634028D-05  0.982422D-04  0.168376D-04  0.602856D-03
     51  0.750789D-04  0.896826D-04  0.315597D-04 -0.246919D-04  0.424801D-03
     52  0.205172D-04  0.120165D-03 -0.906189D-05 -0.104575D-05  0.557133D-04
               46            47            48            49            50
     46  0.000000D+00
     47  0.175109D+00  0.000000D+00
     48  0.604947D-01  0.269949D+00  0.000000D+00
     49  0.330855D-01  0.319433D-01  0.287358D+00  0.000000D+00
     50  0.148073D-04 -0.832228D-05  0.243656D-04 -0.384338D-04  0.000000D+00
     51  0.261515D-03 -0.429359D-04  0.270114D-04 -0.207080D-03 -0.458688D+00
     52  0.816971D-04  0.381920D-04 -0.181966D-04 -0.518672D-04 -0.440187D+00
               51            52
     51  0.000000D+00
     52 -0.491180D+00  0.000000D+00
 Fermi Contact (FC) contribution to J (Hz):
                1             2             3             4             5
      1  0.000000D+00
      2  0.284228D+02  0.000000D+00
      3  0.858969D-01  0.304782D+02  0.000000D+00
      4  0.307217D+02  0.458562D+00  0.668961D+01  0.000000D+00
      5 -0.207765D+00  0.365869D+00  0.391891D+02  0.294982D+01  0.000000D+00
      6  0.215478D+01  0.909044D-01  0.259123D+01  0.361906D+02  0.301931D+02
      7  0.306943D+01  0.153146D+01  0.312864D+02  0.296556D+02  0.173950D+01
      8  0.253383D+01  0.274723D+01  0.154705D+00  0.704110D+00  0.322948D+00
      9  0.174226D+01  0.220699D+01  0.913528D+00  0.152661D+00  0.336264D+01
     10  0.150157D+00 -0.224983D+01 -0.689229D+01 -0.710832D-01  0.277950D+02
     11 -0.682794D-01  0.887021D+00  0.140636D+01  0.243599D+01  0.593106D+02
     12 -0.553603D+00  0.258117D+00 -0.665360D-01 -0.257574D+01 -0.399810D+01
     13 -0.763870D-01 -0.143648D-01  0.160287D+00  0.120372D+00  0.219210D+01
     14  0.443544D-01 -0.916907D-02  0.765776D-01  0.635115D-01 -0.230856D-01
     15  0.610541D-02  0.240627D-02  0.527515D-03 -0.210073D-01  0.181784D-02
     16 -0.705624D-02 -0.209691D-02  0.414515D-02  0.828826D-03  0.789576D-02
     17  0.758609D-02  0.313682D-02 -0.137463D-02 -0.469616D-02 -0.301084D-02
     18 -0.442226D-02 -0.366832D-02  0.339251D-02  0.835805D-02  0.865759D-02
     19  0.108785D-01  0.309943D-02  0.191480D-02  0.111768D-01  0.482608D-02
     20  0.846993D-01  0.561059D+00  0.104572D+01  0.375940D+00  0.552667D+01
     21  0.140452D-01 -0.152129D+00 -0.317718D-01  0.219697D+00  0.545924D+01
     22  0.173326D-03  0.138587D+00  0.148230D+00 -0.167092D-01 -0.768758D+00
     23  0.720668D-02 -0.849974D-01  0.448151D+00 -0.215739D-01  0.249163D+01
     24 -0.309518D-02  0.155807D-01  0.119231D+01 -0.338798D-01  0.589479D+01
     25  0.119203D+01  0.340371D+01  0.254699D+01  0.374523D+02  0.227231D+01
     26  0.130967D+03 -0.815349D+00  0.147937D+01 -0.234124D+01 -0.262528D+00
     27  0.132960D+03 -0.369054D+01  0.154154D+01 -0.250464D+01 -0.776302D+00
     28 -0.354554D+01  0.133381D+03 -0.240277D+01  0.123883D+01  0.111568D+02
     29 -0.101149D+01  0.136004D+03 -0.263446D+01  0.192105D+01  0.533049D+01
     30  0.768092D+01 -0.317735D+00  0.150978D+03  0.742509D+01 -0.378882D+01
     31  0.507220D+01 -0.115917D+00  0.151358D+01  0.129560D+00 -0.436516D+00
     32  0.449673D+00 -0.239690D+00  0.235205D+01  0.709733D+01 -0.170269D+00
     33 -0.554103D-01  0.634642D+00  0.663338D+01  0.358045D+00 -0.261303D+00
     34 -0.972861D-01 -0.276112D+00  0.165138D+00  0.247498D+01 -0.125791D-01
     35  0.328889D+00  0.381968D+00  0.145444D+01  0.112054D+01 -0.306031D+00
     36  0.646254D+00 -0.231618D+00  0.173203D+01  0.783462D+01 -0.256914D+00
     37 -0.184937D+00  0.888460D+00  0.819529D+01  0.150348D+01  0.599506D+00
     38 -0.142201D-01  0.649681D+00  0.477895D+01  0.866711D-01 -0.306189D+01
     39  0.544897D-01  0.160926D-02  0.332170D-02  0.309478D+00 -0.171886D+00
     40  0.140569D-01 -0.540544D-02  0.451768D-01  0.192385D+00  0.255750D+00
     41 -0.545794D-02 -0.787700D-03  0.105166D-01  0.532422D-02  0.886849D-02
     42  0.226193D-02  0.122636D-02 -0.237092D-03 -0.347579D-02 -0.118961D-02
     43 -0.670878D-02 -0.225225D-02  0.101045D-02  0.295183D-02  0.178268D-02
     44  0.284951D-02  0.296619D-02  0.775271D-03 -0.978371D-03 -0.611326D-03
     45  0.478041D-03 -0.174903D-02  0.104517D-02  0.407662D-02  0.736148D-02
     46 -0.714871D-02  0.488337D-01  0.105633D-01 -0.149101D-01 -0.329960D+00
     47  0.119220D-01 -0.746862D-01 -0.601656D-02 -0.963543D-02  0.607908D+00
     48 -0.524047D-02  0.177530D-01  0.194535D+00  0.199447D-01  0.863627D+00
     49  0.859079D-02 -0.427245D-01  0.971107D-02  0.214411D-01  0.163518D+01
     50  0.102107D+02  0.115445D+01 -0.280183D+00 -0.400354D+01 -0.126544D+00
     51  0.228489D+01 -0.122117D+00 -0.266548D+00 -0.351350D+01  0.942433D+00
     52  0.199977D+01 -0.194977D+00 -0.109722D+00 -0.349498D+01 -0.182294D+00
                6             7             8             9            10
      6  0.000000D+00
      7  0.223823D+01  0.000000D+00
      8  0.321300D+00  0.341535D+02  0.000000D+00
      9  0.248663D+01  0.350144D+02  0.225006D+01  0.000000D+00
     10 -0.699337D+00  0.157614D+00 -0.114418D+01 -0.493670D-01  0.000000D+00
     11  0.408761D+01  0.271394D+01 -0.108789D+00  0.559656D+00 -0.413762D+01
     12  0.289146D+02  0.376067D+00 -0.184049D+01 -0.217327D+00 -0.662120D+00
     13 -0.166367D+01  0.128867D+00  0.117473D+00  0.260611D-01 -0.184845D-01
     14  0.417304D+01  0.263281D-01 -0.118963D-01 -0.520678D-02 -0.908634D-02
     15 -0.885658D-01 -0.811869D-03  0.256647D-02  0.304702D-02  0.850996D-02
     16  0.287630D-01 -0.100895D-02 -0.286273D-02 -0.142938D-02  0.453144D-02
     17  0.334817D-01  0.131192D-02  0.263423D-02  0.963529D-03 -0.429168D-02
     18  0.887146D-01  0.853412D-05 -0.349705D-02  0.335498D-03  0.251742D-02
     19  0.622675D-01  0.279326D-02  0.636869D-02 -0.230299D-03 -0.215154D-02
     20  0.130973D+01 -0.851853D-02 -0.344404D-02 -0.181826D-01 -0.123912D+00
     21  0.723652D+00 -0.494894D-02 -0.531083D-02 -0.462901D-02  0.477219D+00
     22  0.929406D-01  0.830756D-03  0.158861D-02 -0.571140D-02 -0.514522D+00
     23  0.369625D-01  0.189137D+00 -0.162484D-01  0.109543D+00  0.446554D+00
     24  0.145210D+01  0.420022D+00 -0.162591D-01  0.337705D+00 -0.512805D+00
     25  0.153935D+00  0.122242D+01  0.613082D+00  0.513959D+00  0.863372D-01
     26  0.756445D+01  0.565423D+01  0.529886D+00  0.465840D+00 -0.874851D-01
     27  0.123559D+02  0.256529D+00 -0.268554D+00  0.519831D+00  0.448437D-01
     28 -0.975172D+00  0.269217D+00 -0.294331D+00  0.686116D+00 -0.109005D+01
     29 -0.321784D+00  0.677159D+01  0.586494D+00  0.587012D+00  0.198629D+00
     30  0.724015D+01  0.783974D+00  0.886483D+00  0.880994D+00 -0.177298D+01
     31  0.146378D+03  0.578334D+01 -0.257957D+00  0.113569D+01  0.291358D-01
     32 -0.182958D+00 -0.365311D+01  0.128885D+03  0.125787D+01 -0.231872D+00
     33 -0.578204D-01 -0.337802D+01  0.122037D+03  0.537607D+01 -0.122615D+01
     34 -0.205297D-01 -0.289181D+01  0.134627D+03  0.117041D+02 -0.150423D+01
     35 -0.309647D+00 -0.257050D+01  0.101154D+02  0.126674D+03 -0.103649D-01
     36  0.178674D+00 -0.311941D+01  0.282217D+01  0.127102D+03  0.706367D-03
     37 -0.339850D+00 -0.316132D+01  0.271560D+01  0.126065D+03  0.386588D-01
     38  0.534571D+01 -0.120235D+00 -0.300278D-01  0.265878D-01 -0.584246D+02
     39  0.437740D+00 -0.124751D-01 -0.214538D-01 -0.249384D-02 -0.316391D+00
     40  0.283083D+01  0.486032D-01  0.179490D+00 -0.554618D-02  0.174593D-01
     41  0.111823D-01 -0.270736D-03 -0.138175D-02 -0.100878D-02  0.174011D-01
     42  0.406412D-01  0.441823D-04 -0.138625D-03  0.130530D-02 -0.211655D-02
     43 -0.294312D-01 -0.277734D-03 -0.295737D-02 -0.410551D-03  0.345119D-02
     44  0.719470D-01  0.139645D-02  0.246631D-02 -0.172866D-03 -0.171404D-02
     45  0.166045D-01 -0.565573D-03 -0.240841D-02  0.302107D-03  0.363002D-03
     46  0.155509D+00  0.322325D-01 -0.276338D-02 -0.419081D-02 -0.193562D+00
     47 -0.784363D-01  0.633007D-02 -0.515320D-02  0.581301D-02  0.389552D+00
     48 -0.209357D-01  0.357070D-01 -0.226420D-02  0.216019D-01 -0.189517D+00
     49  0.346452D+00  0.172462D+00 -0.925376D-02  0.577349D-01  0.459324D+00
     50  0.185985D+01  0.975972D+00  0.101226D+00 -0.103183D+00 -0.224442D-02
     51  0.844639D+01  0.155653D+01 -0.981934D-01  0.152511D+00  0.261787D-01
     52  0.125983D+01  0.760626D+01 -0.122382D+00 -0.172264D+00  0.557509D-02
               11            12            13            14            15
     11  0.000000D+00
     12 -0.182316D-01  0.000000D+00
     13 -0.875953D-01  0.268171D+02  0.000000D+00
     14 -0.201596D-01 -0.700756D+01  0.496730D+02  0.000000D+00
     15  0.558700D-02 -0.883975D+00  0.351365D+01  0.639214D+02  0.000000D+00
     16 -0.695470D-02  0.958099D+00  0.359600D+01 -0.683165D+00  0.632117D+02
     17  0.484785D-02 -0.106293D+01 -0.645659D+00  0.764021D+01 -0.988915D+00
     18 -0.854939D-02  0.800408D+00  0.396681D+01 -0.626486D+00  0.711078D+01
     19  0.756725D-02 -0.107390D+01  0.461367D+01  0.645809D+02  0.988026D+00
     20  0.198428D+01 -0.271314D+00  0.514768D-01  0.201205D-02  0.624820D-05
     21 -0.472926D+01 -0.703769D-01  0.340959D-01  0.122821D-02  0.548018D-02
     22  0.105841D+02 -0.387091D-01 -0.565769D-02  0.372984D-02 -0.468911D-02
     23 -0.145669D+01  0.364103D-01  0.213729D-01 -0.188854D-02  0.200107D-02
     24  0.640062D+02 -0.513651D-01  0.931199D-01  0.681589D-02  0.405929D-02
     25  0.130386D+00 -0.473681D+00  0.426172D+00 -0.255903D-01  0.657329D-01
     26  0.172489D-01 -0.548584D-01 -0.225425D-01  0.188065D-01  0.118872D-02
     27  0.594223D-01 -0.137500D+01 -0.554967D-01  0.599756D-01  0.575290D-02
     28 -0.131137D+00  0.167044D+00 -0.794328D-02 -0.454258D-02  0.354740D-03
     29 -0.210722D+00  0.110320D-01  0.119291D-04 -0.506032D-03 -0.180704D-02
     30  0.238822D+00 -0.130113D+01  0.344349D+00  0.552753D-01  0.254131D-02
     31  0.383166D+01 -0.195019D+01  0.781529D+01 -0.135724D+00 -0.574416D-03
     32  0.127051D+00 -0.231634D+00  0.511921D-01  0.114089D-03 -0.142470D-02
     33  0.130686D+00 -0.654476D-01  0.139395D-01 -0.371507D-02  0.102116D-02
     34 -0.642596D-01 -0.611031D+00  0.103726D+00 -0.488567D-02  0.648397D-03
     35 -0.935384D-02 -0.450396D-01 -0.625424D-03 -0.521398D-03 -0.164417D-02
     36 -0.262020D-02  0.935370D-02 -0.815553D-02  0.422314D-02 -0.891168D-03
     37  0.462121D+00  0.153066D-01 -0.672179D-02 -0.341438D-03  0.365519D-03
     38  0.823191D-02  0.485202D+01 -0.115647D-02 -0.671696D-02 -0.159070D-01
     39 -0.217757D-01 -0.353341D+01  0.146640D+03 -0.253541D+01  0.707019D+01
     40 -0.316612D-01 -0.279184D+01  0.141025D+03 -0.332964D+01  0.465270D+01
     41 -0.310075D-02  0.829728D+00  0.474824D+01  0.256616D+01  0.160892D+03
     42  0.135685D-02 -0.385690D+00  0.591587D+00  0.792879D+01  0.336913D+01
     43 -0.430972D-02  0.798416D+00  0.511484D+00 -0.143323D+01  0.826077D+01
     44  0.231825D-02 -0.415220D+00  0.630432D+00  0.794995D+01 -0.138032D+01
     45 -0.489352D-02  0.791747D+00  0.512649D+01  0.255091D+01  0.675959D+01
     46  0.116199D+02 -0.193116D-01 -0.553691D-02 -0.386951D-03 -0.193616D-02
     47 -0.125977D+01 -0.580696D-02  0.204166D-02 -0.347791D-02  0.238212D-02
     48  0.672098D+01 -0.124997D-01 -0.782490D-03  0.290859D-03 -0.139454D-02
     49  0.420456D+01 -0.790465D-01  0.714105D-01 -0.108264D-01  0.217726D-01
     50  0.639687D-01 -0.458302D-01  0.426340D+00 -0.288574D-02  0.218887D-01
     51  0.345264D+00 -0.354326D-01  0.886231D+00  0.224141D-01  0.429332D-01
     52 -0.737885D-02  0.518307D-01  0.706272D+00  0.490359D-01  0.384819D-01
               16            17            18            19            20
     16  0.000000D+00
     17  0.624332D+02  0.000000D+00
     18 -0.667989D+00  0.626060D+02  0.000000D+00
     19  0.713020D+01 -0.103210D+01  0.628118D+02  0.000000D+00
     20  0.906776D-03  0.150383D-03  0.118897D-02 -0.869373D-03  0.000000D+00
     21 -0.347048D-02  0.132302D-02 -0.350387D-02  0.356309D-02  0.219386D+01
     22  0.480834D-02 -0.323458D-02  0.593555D-02 -0.520467D-02 -0.162570D+01
     23 -0.532995D-03 -0.110703D-02  0.746068D-05  0.955894D-03  0.126368D+01
     24  0.525328D-03  0.566947D-02  0.263730D-02  0.382389D-01 -0.168580D+01
     25  0.355643D-02  0.890944D-02 -0.932998D-02  0.426053D-02  0.218528D+00
     26 -0.118215D-04  0.966492D-03 -0.376233D-03 -0.127561D-02  0.443871D-01
     27 -0.556094D-02  0.813974D-02 -0.557100D-02  0.673964D-02  0.882350D-01
     28 -0.594528D-03  0.194756D-02 -0.723253D-03 -0.743104D-03 -0.410954D-01
     29  0.431691D-03  0.748206D-03  0.422219D-03  0.854143D-04  0.545198D-01
     30 -0.414316D-02  0.425281D-02 -0.106983D-02  0.357540D-02  0.300030D+00
     31  0.175295D-01 -0.179954D-01  0.246909D-01  0.558431D-01  0.107845D-01
     32  0.134338D-02 -0.687924D-05  0.261116D-02  0.186068D-02 -0.373990D-03
     33  0.626671D-03 -0.325847D-03  0.132119D-03 -0.101417D-02  0.688804D-02
     34  0.961715D-03  0.215100D-02  0.345905D-04  0.465255D-02  0.679793D-02
     35  0.204434D-03 -0.117955D-02 -0.213641D-03 -0.875348D-03  0.692149D-02
     36 -0.965947D-04  0.183262D-03  0.662778D-03  0.668241D-03  0.777430D-03
     37  0.428906D-03 -0.926756D-03  0.158494D-02  0.234676D-03  0.191424D-01
     38 -0.127770D-02 -0.403132D-05 -0.115361D-03 -0.927319D-03 -0.886499D-01
     39  0.125324D+01  0.106684D+00  0.100025D+00  0.530804D+01 -0.915628D-03
     40 -0.256303D+00  0.398423D+00  0.791940D+00  0.645315D+01 -0.448384D-02
     41  0.296531D+01  0.795162D+01 -0.115981D+01  0.683560D+01 -0.121740D-02
     42  0.163531D+03  0.328739D+01  0.822298D+01 -0.137084D+01 -0.920217D-03
     43  0.344734D+01  0.163617D+03  0.340722D+01  0.822178D+01 -0.104050D-02
     44  0.823778D+01  0.325948D+01  0.163484D+03  0.340494D+01 -0.395745D-03
     45 -0.113823D+01  0.793776D+01  0.309618D+01  0.161786D+03  0.731124D-03
     46  0.130735D-02  0.114731D-02  0.708566D-03 -0.632695D-03  0.100775D+02
     47 -0.244395D-02  0.165227D-02 -0.303671D-02  0.255467D-02  0.961890D+00
     48  0.736301D-03  0.111922D-02  0.985347D-03  0.199248D-03 -0.185551D+00
     49  0.272679D-03  0.200385D-02  0.140950D-03  0.382139D-02  0.629167D+00
     50  0.371335D-02  0.303145D-02  0.353611D-02  0.383685D-01 -0.126525D-01
     51  0.104406D-01  0.965114D-03  0.290612D-03 -0.425926D-02  0.770274D-02
     52  0.908886D-02 -0.135296D-02 -0.744647D-03 -0.306347D-02 -0.112593D-01
               21            22            23            24            25
     21  0.000000D+00
     22  0.604289D+02  0.000000D+00
     23 -0.130554D+01  0.611295D+02  0.000000D+00
     24  0.108293D+02 -0.201406D+01  0.621262D+02  0.000000D+00
     25  0.784651D-01 -0.166204D-03 -0.184100D-02 -0.723717D-02  0.000000D+00
     26  0.107181D-01 -0.365044D-02  0.483872D-02 -0.575813D-02  0.277052D+00
     27  0.318084D-01 -0.568272D-02  0.989268D-02 -0.114365D-01  0.367169D+01
     28 -0.435147D-01  0.441515D-01 -0.494259D-01  0.128654D+00  0.506340D-01
     29 -0.550337D-02  0.247025D-01 -0.303600D-01  0.212455D+00 -0.650242D-01
     30  0.299359D-01  0.879993D-01 -0.441253D-01 -0.158295D+00  0.799398D+00
     31  0.969960D-01  0.247412D-01  0.688878D-02  0.410038D+00  0.276634D+00
     32  0.828987D-03  0.202399D-02  0.210326D-02 -0.950298D-02  0.781986D-01
     33 -0.387099D-02  0.610124D-02  0.204647D-03 -0.188472D-01  0.171106D+00
     34 -0.775749D-02  0.266869D-02 -0.563555D-02 -0.631236D-02 -0.802226D-02
     35 -0.351155D-02  0.407923D-02 -0.799119D-02 -0.175089D-01 -0.829961D-01
     36  0.492943D-03  0.290601D-02 -0.713828D-02 -0.217931D-01 -0.125886D+00
     37 -0.109316D-01  0.109783D-01  0.328315D-01  0.828256D-01  0.169895D+00
     38  0.168170D-01 -0.458784D-01  0.438374D-01 -0.204481D-01  0.514320D-01
     39  0.349881D-02  0.564009D-02  0.228440D-02  0.919951D-01  0.260807D+00
     40  0.716041D-02  0.584507D-02 -0.200385D-02  0.399242D+00 -0.184054D-01
     41  0.167046D-02  0.474756D-03  0.869712D-03  0.475408D-01 -0.618350D-02
     42  0.187372D-02 -0.228387D-02 -0.744101D-03  0.103866D-02  0.510308D-02
     43 -0.901322D-03  0.165088D-02  0.468893D-04  0.125609D-02 -0.215584D-02
     44  0.995415D-03 -0.236725D-02 -0.132386D-02  0.888945D-02  0.670725D-02
     45 -0.175312D-02  0.310333D-02  0.163120D-02 -0.354590D-02  0.542891D-01
     46  0.182639D+03  0.110665D+02  0.694995D+01 -0.170364D+01 -0.647459D-02
     47  0.561594D+01  0.166837D+03  0.320243D+01  0.699365D+01 -0.194758D-02
     48  0.723383D+01  0.280737D+01  0.163617D+03  0.322109D+01  0.488162D-03
     49 -0.743107D+00  0.651785D+01  0.250326D+01  0.161085D+03 -0.461470D-03
     50  0.478101D-03 -0.144246D-02 -0.291610D-02 -0.118922D-02  0.128708D+03
     51  0.246098D-01  0.622432D-02  0.102039D-02  0.533721D-01  0.127091D+03
     52 -0.586442D-02  0.106271D-02 -0.307571D-03  0.125307D-01  0.124220D+03
               26            27            28            29            30
     26  0.000000D+00
     27 -0.142593D+02  0.000000D+00
     28  0.476402D+01  0.130629D+02  0.000000D+00
     29  0.103507D+02  0.477171D+01 -0.158034D+02  0.000000D+00
     30 -0.309110D+00  0.460567D+00  0.541754D+01  0.525221D+00  0.000000D+00
     31 -0.473933D+00  0.370223D+00  0.704815D-01  0.438046D-01 -0.290926D+00
     32  0.956594D+00 -0.586787D-02  0.293139D-01  0.136571D+00 -0.224385D+00
     33  0.468009D-02  0.245800D-01  0.348209D-04  0.785425D+00 -0.436243D+00
     34  0.317721D-01  0.226351D-01  0.917228D-02 -0.515221D-01 -0.746170D-01
     35  0.623550D-01 -0.208688D+00 -0.418806D+00  0.311055D-01 -0.121110D+00
     36  0.147563D-01  0.244849D+00  0.829388D-02  0.303086D-01 -0.168893D+00
     37 -0.130705D-01  0.922919D-02  0.150940D+00 -0.133950D-02 -0.382813D+00
     38  0.371064D-01 -0.137246D-01  0.325506D+00  0.130396D+00 -0.467991D-01
     39  0.114631D-01  0.229529D-01  0.890012D-02  0.139484D-03 -0.377341D-01
     40 -0.723257D-02 -0.254217D-01  0.193368D-02  0.617568D-02  0.268249D-01
     41 -0.325729D-03 -0.537879D-02  0.822573D-03  0.480690D-04 -0.405168D-02
     42  0.243561D-03  0.261381D-02 -0.299974D-03 -0.187260D-03  0.257644D-02
     43 -0.452845D-03 -0.645437D-02  0.412843D-03  0.796943D-04 -0.379215D-02
     44  0.533302D-03  0.427205D-02 -0.409759D-03 -0.127481D-03  0.261841D-02
     45 -0.958679D-03 -0.797411D-02  0.695711D-03  0.616185D-03 -0.193117D-02
     46 -0.704677D-02 -0.120246D-01  0.186276D-01 -0.633416D-02  0.332026D-01
     47  0.203314D-02  0.609515D-02 -0.368154D-01 -0.203933D-01  0.246412D-01
     48 -0.554638D-02 -0.834764D-02  0.181988D-01  0.101253D-01 -0.246427D-01
     49  0.494699D-02  0.218941D-02 -0.459187D-01 -0.432130D-01 -0.319731D-02
     50 -0.579334D+00  0.164701D+00  0.106205D+00  0.353987D+00  0.512874D-01
     51 -0.189714D+00 -0.244107D+00 -0.365773D-01  0.134200D+00 -0.470240D-01
     52 -0.226330D+00 -0.133724D+00  0.328301D-01  0.116776D-01  0.106223D+01
               31            32            33            34            35
     31  0.000000D+00
     32  0.664158D-01  0.000000D+00
     33  0.912194D-01 -0.143823D+02  0.000000D+00
     34 -0.532231D-01 -0.154137D+02 -0.138830D+02  0.000000D+00
     35 -0.417823D-01 -0.151363D+00  0.114770D+01  0.537823D+01  0.000000D+00
     36  0.790760D+00 -0.742468D-01 -0.128166D+00  0.654503D+00 -0.143725D+02
     37  0.978305D-02 -0.266612D+00 -0.197418D+00  0.162349D+00 -0.135613D+02
     38 -0.130300D+00 -0.378526D-01 -0.127874D+00 -0.156496D+00 -0.530575D-03
     39  0.887905D-01 -0.196430D-02 -0.129111D-02 -0.652136D-02  0.313972D-03
     40 -0.386394D+00  0.193045D-01 -0.158653D-01 -0.722606D-01  0.164713D-02
     41  0.284747D-01  0.243098D-03 -0.403434D-03 -0.111912D-02 -0.101483D-05
     42 -0.487894D-02 -0.120470D-03 -0.466168D-04  0.413964D-03 -0.165749D-04
     43  0.126876D-01  0.157423D-03 -0.278312D-03 -0.158852D-02 -0.924130D-05
     44 -0.458205D-03 -0.186385D-03 -0.324160D-04  0.627062D-03 -0.102493D-04
     45  0.252665D-01  0.186154D-02  0.147091D-02  0.204950D-02  0.237098D-03
     46 -0.190071D-01  0.428931D-03  0.167152D-02  0.118700D-02  0.114821D-02
     47 -0.105051D-01  0.979871D-03 -0.110541D-02 -0.437327D-02 -0.301168D-02
     48  0.428020D-01  0.209070D-02  0.305404D-02  0.285503D-03  0.540843D-03
     49 -0.522009D+00 -0.127525D-03 -0.375479D-02 -0.455112D-02 -0.580786D-02
     50 -0.165976D+00  0.867911D-02  0.654757D-01  0.177200D-02  0.279594D-01
     51 -0.611959D+00  0.589088D-01  0.124793D-01  0.839956D-01  0.134573D-01
     52 -0.191693D+00 -0.150428D+00  0.426213D-01  0.203598D-01  0.268367D-01
               36            37            38            39            40
     36  0.000000D+00
     37 -0.157007D+02  0.000000D+00
     38 -0.269606D-02  0.333186D-01  0.000000D+00
     39 -0.279999D-02 -0.329124D-03 -0.171165D+00  0.000000D+00
     40  0.167905D-02  0.250818D-03  0.607160D-01 -0.900726D+01  0.000000D+00
     41  0.256977D-04 -0.702968D-04 -0.164875D-01 -0.386654D-01 -0.532973D+00
     42 -0.986246D-04  0.684917D-04 -0.377023D-03  0.349623D+00  0.141471D+00
     43  0.868255D-04  0.380703D-04  0.683347D-03 -0.959738D-01 -0.306849D+00
     44  0.248333D-03  0.298451D-04 -0.493354D-03  0.468133D-01  0.374808D+00
     45  0.165361D-03  0.871403D-05  0.133210D-02 -0.402198D+00 -0.242321D+00
     46 -0.733780D-03  0.187419D-02 -0.141462D-01 -0.613248D-03 -0.249004D-02
     47  0.923536D-03 -0.723714D-02  0.305345D-01 -0.354404D-02 -0.889817D-03
     48  0.272113D-02  0.228112D-01 -0.162867D-01  0.147552D-02  0.987091D-04
     49 -0.684165D-02 -0.220193D-02  0.452508D-01 -0.271347D-01 -0.180138D+00
     50  0.112905D+00  0.517672D-01 -0.946402D-02 -0.496081D-01  0.366402D-01
     51 -0.588455D-01 -0.191603D+00  0.244803D-01  0.376967D-01  0.394727D-01
     52 -0.390992D-01 -0.473454D-01  0.111550D-01 -0.155641D+00  0.108486D-01
               41            42            43            44            45
     41  0.000000D+00
     42  0.869313D+01  0.000000D+00
     43  0.114126D+01  0.844215D+01  0.000000D+00
     44  0.651066D+00  0.128973D+01  0.850331D+01  0.000000D+00
     45  0.186368D+01  0.638530D+00  0.115674D+01  0.861380D+01  0.000000D+00
     46 -0.882468D-03  0.331182D-04 -0.228848D-03  0.835762D-04 -0.164135D-03
     47  0.722593D-03  0.269396D-03 -0.182934D-03  0.183565D-03 -0.273433D-03
     48  0.953877D-03  0.395601D-04 -0.110899D-03  0.131862D-03 -0.783503D-04
     49  0.129864D-01  0.210058D-02  0.125671D-02 -0.866935D-03  0.181805D-03
     50  0.210470D-02  0.197816D-03  0.306515D-02  0.525331D-03  0.188091D-01
     51  0.234246D-02  0.279809D-02  0.984660D-03 -0.770386D-03  0.132538D-01
     52  0.640135D-03  0.374915D-02 -0.282731D-03 -0.326272D-04  0.173825D-02
               46            47            48            49            50
     46  0.000000D+00
     47  0.546341D+01  0.000000D+00
     48  0.188743D+01  0.842239D+01  0.000000D+00
     49  0.103227D+01  0.996629D+00  0.896556D+01  0.000000D+00
     50  0.461987D-03 -0.259655D-03  0.760204D-03 -0.119913D-02  0.000000D+00
     51  0.815926D-02 -0.133960D-02  0.842754D-03 -0.646087D-02 -0.143111D+02
     52  0.254895D-02  0.119159D-02 -0.567732D-03 -0.161825D-02 -0.137338D+02
               51            52
     51  0.000000D+00
     52 -0.153248D+02  0.000000D+00
 End of Minotr Frequency-dependent properties file   721 does not exist.
 Leave Link 1002 at Wed Aug 25 18:54:50 2010, MaxMem=  671088640 cpu:  108003.6
 (Enter /home/system/software/orac/g03_E.01/g03/l601.exe)
 Copying SCF densities to generalized density rwf, ISCF=0 IROHF=0.

 **********************************************************************

            Population analysis using the SCF density.

 **********************************************************************

 Alpha  occ. eigenvalues --  -19.15752 -19.12236 -14.31978 -10.24754 -10.23898
 Alpha  occ. eigenvalues --  -10.23869 -10.22377 -10.21894 -10.20641 -10.20296
 Alpha  occ. eigenvalues --  -10.19674 -10.19657 -10.19628 -10.19602 -10.19565
 Alpha  occ. eigenvalues --  -10.19539 -10.19507 -10.18942 -10.18458 -10.17327
 Alpha  occ. eigenvalues --  -10.17174 -10.17153 -10.16667 -10.16166 -10.14924
 Alpha  occ. eigenvalues --   -1.05778  -1.01415  -0.94645  -0.87543  -0.86910
 Alpha  occ. eigenvalues --   -0.81046  -0.78894  -0.78197  -0.76027  -0.75705
 Alpha  occ. eigenvalues --   -0.74957  -0.73060  -0.69653  -0.67077  -0.66970
 Alpha  occ. eigenvalues --   -0.64743  -0.63639  -0.62160  -0.61667  -0.60068
[...]
     32 -0.421062D+00  0.000000D+00
     33 -0.335896D+00 -0.147987D+02  0.000000D+00
     34 -0.364513D+00 -0.157823D+02 -0.142392D+02  0.000000D+00
     35 -0.271599D+00 -0.643477D+00  0.661227D+00  0.484107D+01  0.000000D+00
     36  0.393181D+00  0.470265D+00 -0.119779D+00  0.179421D+00 -0.148560D+02
     37 -0.304232D+00 -0.543092D+00  0.569125D+00 -0.230810D+00 -0.140376D+02
     38 -0.301622D+00 -0.106353D+00 -0.311633D+00  0.116014D+01 -0.377565D+00
     39  0.473000D+00 -0.267217D+00 -0.245326D-02  0.894455D-01 -0.130867D+00
     40  0.673376D+00 -0.283729D+00 -0.291440D+00 -0.179162D+00 -0.201604D+00
     41  0.214304D+00 -0.930847D-01 -0.135247D+00  0.150473D+00 -0.142043D+00
     42 -0.143519D+00 -0.105145D+00 -0.133804D+00  0.301497D-02 -0.149696D+00
     43 -0.185969D+00 -0.113484D+00 -0.933483D-01 -0.239534D-01 -0.145959D+00
     44 -0.192607D+00 -0.101046D+00  0.186264D-01  0.543357D-01 -0.122076D+00
     45 -0.256756D-01 -0.816674D-01  0.210007D+00  0.312378D+00 -0.758223D-01
     46 -0.275657D+00 -0.865334D-01 -0.209612D+00 -0.173375D+00 -0.724108D-01
     47 -0.197696D+00 -0.172128D+00 -0.220035D+00 -0.185054D+00 -0.156218D+00
     48  0.108166D+00 -0.196812D+00 -0.210550D+00 -0.136915D+00 -0.176049D+00
     49  0.748956D+00 -0.183651D+00 -0.193897D+00  0.562195D-01 -0.179106D+00
     50 -0.399337D+00 -0.230741D+00  0.742251D+00  0.634171D+00 -0.312080D+00
     51 -0.994140D+00 -0.273845D+00  0.308633D+00 -0.135860D+00  0.249636D+00
     52  0.242938D+00 -0.617517D+00 -0.230544D+00 -0.207261D+00 -0.228119D+00
               36            37            38            39            40
     36  0.000000D+00
     37 -0.161589D+02  0.000000D+00
     38 -0.280189D+00 -0.235216D+00  0.000000D+00
     39 -0.211129D+00 -0.209161D-01 -0.244308D+00  0.000000D+00
     40 -0.253495D+00 -0.209133D+00  0.368978D+00 -0.922958D+01  0.000000D+00
     41 -0.125923D+00 -0.129134D+00  0.807001D+00 -0.516234D+00  0.143632D+00
     42 -0.120636D+00 -0.125795D+00  0.199222D+00 -0.776676D-01 -0.677626D-01
     43 -0.115946D+00 -0.985232D-01  0.101699D-01 -0.444043D+00 -0.648036D+00
     44 -0.961720D-01 -0.266343D-01 -0.103848D-01 -0.148319D+00 -0.356230D-01
     45 -0.773543D-01  0.895050D-01  0.120432D+00  0.387610D+00 -0.668009D+00
     46 -0.663125D-01 -0.186842D+00 -0.413282D+00 -0.222996D+00 -0.171442D+00
     47 -0.162640D+00 -0.209139D+00 -0.277878D+00 -0.198497D+00 -0.916385D-01
     48 -0.194982D+00 -0.176813D+00 -0.152704D+00 -0.100577D+00  0.245646D+00
     49 -0.216985D+00 -0.188634D+00  0.555986D+00  0.872899D-01  0.123286D+01
     50 -0.197591D+00  0.218718D+00  0.135843D+00  0.778623D+00 -0.157809D+00
     51 -0.306488D+00  0.704813D+00 -0.250168D+00 -0.405347D-01 -0.296169D+00
     52 -0.499551D+00 -0.270423D+00 -0.164258D+00  0.867852D+00  0.111467D+00
               41            42            43            44            45
     41  0.000000D+00
     42  0.841655D+01  0.000000D+00
     43  0.478932D+00  0.809672D+01  0.000000D+00
     44  0.109594D+00  0.588882D+00  0.814852D+01  0.000000D+00
     45  0.120449D+01  0.907384D-01  0.486306D+00  0.832903D+01  0.000000D+00
     46 -0.840137D-01 -0.978017D-01 -0.125636D+00 -0.137412D+00 -0.147471D+00
     47 -0.109930D-01 -0.584741D-01 -0.112996D+00 -0.134162D+00 -0.143825D+00
     48  0.284862D+00  0.375292D-01 -0.857243D-01 -0.116740D+00 -0.102888D+00
     49  0.843622D+00  0.891437D-01 -0.838484D-01 -0.102721D+00 -0.280659D-02
     50 -0.774966D-01 -0.132043D+00 -0.876785D-01  0.107292D+00  0.838232D+00
     51 -0.209941D+00 -0.197465D+00 -0.169502D+00 -0.907837D-01  0.802888D-01
     52 -0.852798D-01 -0.161451D+00 -0.155885D+00 -0.575088D-01  0.335215D+00
               46            47            48            49            50
     46  0.000000D+00
     47  0.515068D+01  0.000000D+00
     48  0.119569D+01  0.804523D+01  0.000000D+00
     49  0.498865D+00  0.342687D+00  0.873967D+01  0.000000D+00
     50 -0.206520D+00 -0.195140D+00 -0.150588D+00 -0.273208D-01  0.000000D+00
     51 -0.179443D+00 -0.196721D+00 -0.188492D+00 -0.178071D+00 -0.147730D+02
     52 -0.183143D+00 -0.152000D+00 -0.718664D-01  0.116414D+00 -0.141714D+02
               51            52
     51  0.000000D+00
     52 -0.157773D+02  0.000000D+00
 End of Minotr Frequency-dependent properties file   721 does not exist.
 Leave Link 1002 at Thu Aug 26 07:26:48 2010, MaxMem=  671088640 cpu:  253480.1
 (Enter /home/system/software/orac/g03_E.01/g03/l601.exe)
 Copying SCF densities to generalized density rwf, ISCF=0 IROHF=0.

 **********************************************************************

            Population analysis using the SCF density.

 **********************************************************************

 Alpha  occ. eigenvalues --  -19.17537 -19.14108 -14.33405 -10.25497 -10.24593
 Alpha  occ. eigenvalues --  -10.24535 -10.23220 -10.22799 -10.21606 -10.21176
 Alpha  occ. eigenvalues --  -10.20619 -10.20604 -10.20587 -10.20530 -10.20529
 Alpha  occ. eigenvalues --  -10.20507 -10.20486 -10.19667 -10.19218 -10.18148
 Alpha  occ. eigenvalues --  -10.17986 -10.17895 -10.17479 -10.17014 -10.15743
 Alpha  occ. eigenvalues --   -1.05582  -1.01219  -0.94487  -0.87375  -0.86733
 Alpha  occ. eigenvalues --   -0.80895  -0.78753  -0.78061  -0.75876  -0.75580
 Alpha  occ. eigenvalues --   -0.74830  -0.72931  -0.69532  -0.66984  -0.66853
 Alpha  occ. eigenvalues --   -0.64616  -0.63513  -0.62017  -0.61544  -0.59931
 Alpha  occ. eigenvalues --   -0.59130  -0.54379  -0.53297  -0.52527  -0.52302
 Alpha  occ. eigenvalues --   -0.51626  -0.49937  -0.48877  -0.48142  -0.47604
 Alpha  occ. eigenvalues --   -0.47183  -0.46310  -0.45615  -0.44331  -0.43612
 Alpha  occ. eigenvalues --   -0.43448  -0.43179  -0.42285  -0.41882  -0.41013
 Alpha  occ. eigenvalues --   -0.40686  -0.39697  -0.39247  -0.39104  -0.37953
 Alpha  occ. eigenvalues --   -0.37605  -0.36892  -0.36794  -0.36351  -0.36081
 Alpha  occ. eigenvalues --   -0.35565  -0.34650  -0.33759  -0.33307  -0.32956
 Alpha  occ. eigenvalues --   -0.32165  -0.31217  -0.30945  -0.29130  -0.28465
 Alpha  occ. eigenvalues --   -0.28027  -0.26845  -0.26445  -0.26230  -0.25681
 Alpha  occ. eigenvalues --   -0.24534
 Alpha virt. eigenvalues --   -0.03504  -0.03036  -0.02290  -0.02232  -0.00757
 Alpha virt. eigenvalues --    0.00302   0.00534   0.01186   0.01702   0.01993
 Alpha virt. eigenvalues --    0.02841   0.03071   0.03160   0.03418   0.04288
 Alpha virt. eigenvalues --    0.04455   0.04741   0.04955   0.05540   0.05792
 Alpha virt. eigenvalues --    0.06209   0.06654   0.06770   0.06850   0.07540
 Alpha virt. eigenvalues --    0.07761   0.08048   0.08440   0.08849   0.09122
 Alpha virt. eigenvalues --    0.09392   0.09778   0.09922   0.10378   0.10763
 Alpha virt. eigenvalues --    0.10974   0.11465   0.11654   0.11824   0.11962
 Alpha virt. eigenvalues --    0.12251   0.12954   0.12987   0.13297   0.13584
 Alpha virt. eigenvalues --    0.14037   0.14098   0.14377   0.14760   0.15345
 Alpha virt. eigenvalues --    0.15505   0.15746   0.15869   0.16172   0.16400
 Alpha virt. eigenvalues --    0.16783   0.17165   0.17257   0.17527   0.17880
 Alpha virt. eigenvalues --    0.18079   0.18243   0.18492   0.18917   0.18977
 Alpha virt. eigenvalues --    0.19215   0.19499   0.19697   0.19889   0.20149
 Alpha virt. eigenvalues --    0.20302   0.20451   0.20646   0.20958   0.21397
 Alpha virt. eigenvalues --    0.21471   0.21671   0.21730   0.22279   0.22381
 Alpha virt. eigenvalues --    0.22422   0.22778   0.22980   0.23389   0.23629
 Alpha virt. eigenvalues --    0.23906   0.23963   0.24472   0.25117   0.25392
 Alpha virt. eigenvalues --    0.25489   0.25705   0.25879   0.26021   0.26477
 Alpha virt. eigenvalues --    0.26615   0.26933   0.27214   0.27538   0.27688
 Alpha virt. eigenvalues --    0.28020   0.28576   0.28871   0.28930   0.29470
 Alpha virt. eigenvalues --    0.29708   0.29899   0.30036   0.30399   0.30562
 Alpha virt. eigenvalues --    0.30686   0.30941   0.31179   0.31472   0.31955
 Alpha virt. eigenvalues --    0.32039   0.32390   0.32472   0.33351   0.33623
 Alpha virt. eigenvalues --    0.33967   0.34061   0.34333   0.34688   0.35570
 Alpha virt. eigenvalues --    0.35879   0.36222   0.36618   0.37309   0.37655
 Alpha virt. eigenvalues --    0.37992   0.38091   0.38793   0.39051   0.39394
 Alpha virt. eigenvalues --    0.40420   0.40847   0.41574   0.41873   0.42018
 Alpha virt. eigenvalues --    0.42458   0.42773   0.43646   0.44316   0.44339
 Alpha virt. eigenvalues --    0.45285   0.45906   0.47545   0.47835   0.49432
 Alpha virt. eigenvalues --    0.50793   0.52026   0.52134   0.53405   0.54197
 Alpha virt. eigenvalues --    0.56973   0.58155   0.59324   0.60578   0.67611
 Alpha virt. eigenvalues --    0.68204   0.68441   0.68836   0.69512   0.70244
 Alpha virt. eigenvalues --    0.70753   0.71079   0.71711   0.72383   0.72454
 Alpha virt. eigenvalues --    0.72766   0.72999   0.73757   0.74115   0.74501
 Alpha virt. eigenvalues --    0.74732   0.75098   0.75321   0.75923   0.76341
 Alpha virt. eigenvalues --    0.77578   0.77887   0.78368   0.78872   0.79537
 Alpha virt. eigenvalues --    0.80080   0.80223   0.80521   0.81354   0.82416
 Alpha virt. eigenvalues --    0.82889   0.83253   0.84124   0.85292   0.86148
 Alpha virt. eigenvalues --    0.86334   0.87106   0.88056   0.88968   0.89266
 Alpha virt. eigenvalues --    0.89970   0.90618   0.91103   0.92485   0.92902
 Alpha virt. eigenvalues --    0.93406   0.93562   0.94349   0.94764   0.95559
 Alpha virt. eigenvalues --    0.96185   0.96441   0.97195   0.97596   0.98219
 Alpha virt. eigenvalues --    0.99108   0.99660   1.00280   1.01335   1.02535
 Alpha virt. eigenvalues --    1.03103   1.03501   1.03835   1.04151   1.05172
 Alpha virt. eigenvalues --    1.05934   1.06445   1.07720   1.08132   1.09147
 Alpha virt. eigenvalues --    1.09835   1.10431   1.10745   1.11589   1.12009
 Alpha virt. eigenvalues --    1.12712   1.14162   1.14618   1.15108   1.16610
 Alpha virt. eigenvalues --    1.17159   1.17482   1.17883   1.18269   1.18841
 Alpha virt. eigenvalues --    1.19407   1.21431   1.21602   1.21860   1.22640
 Alpha virt. eigenvalues --    1.24154   1.25231   1.25504   1.26070   1.27716
 Alpha virt. eigenvalues --    1.28475   1.29072   1.30877   1.31279   1.32900
 Alpha virt. eigenvalues --    1.33652   1.36046   1.36645   1.37504   1.38366
 Alpha virt. eigenvalues --    1.39466   1.40433   1.42937   1.43338   1.43608
 Alpha virt. eigenvalues --    1.44487   1.46242   1.46818   1.47352   1.47699
 Alpha virt. eigenvalues --    1.48155   1.48325   1.49123   1.49723   1.50759
 Alpha virt. eigenvalues --    1.51644   1.52998   1.53293   1.54049   1.54966
 Alpha virt. eigenvalues --    1.55873   1.61299   1.62690   1.63341   1.66023
 Alpha virt. eigenvalues --    1.67293   1.69581   1.70117   1.71329   1.74543
 Alpha virt. eigenvalues --    1.75635   1.76495   1.78502   1.78709   1.80632
 Alpha virt. eigenvalues --    1.81533   1.82097   1.82497   1.83086   1.85214
 Alpha virt. eigenvalues --    1.85828   1.86275   1.87012   1.87369   1.89684
 Alpha virt. eigenvalues --    1.90025   1.91466   1.91599   1.92923   1.93072
 Alpha virt. eigenvalues --    1.93758   1.95078   1.95788   1.96786   1.97338
 Alpha virt. eigenvalues --    1.98500   1.99161   1.99666   2.00257   2.01682
 Alpha virt. eigenvalues --    2.03620   2.04194   2.05917   2.08201   2.08993
 Alpha virt. eigenvalues --    2.09080   2.10136   2.11516   2.12170   2.12961
 Alpha virt. eigenvalues --    2.13921   2.14202   2.15654   2.16022   2.16396
 Alpha virt. eigenvalues --    2.17296   2.18481   2.18728   2.19190   2.20288
 Alpha virt. eigenvalues --    2.21442   2.22179   2.23587   2.25450   2.25781
 Alpha virt. eigenvalues --    2.26294   2.27593   2.28011   2.29290   2.29718
 Alpha virt. eigenvalues --    2.30188   2.31459   2.32733   2.33274   2.34499
 Alpha virt. eigenvalues --    2.35081   2.36264   2.37442   2.39013   2.40688
 Alpha virt. eigenvalues --    2.42329   2.43488   2.46979   2.47412   2.48083
 Alpha virt. eigenvalues --    2.51565   2.53426   2.54383   2.58368   2.60317
 Alpha virt. eigenvalues --    2.60462   2.61421   2.62228   2.63924   2.64300
 Alpha virt. eigenvalues --    2.64651   2.66509   2.67306   2.68133   2.70525
 Alpha virt. eigenvalues --    2.73735   2.73797   2.74238   2.75585   2.76404
 Alpha virt. eigenvalues --    2.77312   2.77781   2.79680   2.81298   2.82739
 Alpha virt. eigenvalues --    2.85579   2.86105   2.87154   2.88892   2.91482
 Alpha virt. eigenvalues --    2.93832   2.94590   2.98196   3.01326   3.05499
 Alpha virt. eigenvalues --    3.06462   3.14760   3.26012   3.37356   3.39774
 Alpha virt. eigenvalues --    3.42008   4.23685   4.25362   4.26176   4.30813
 Alpha virt. eigenvalues --    4.32069   4.33361   4.33623   4.36156   4.37267
 Alpha virt. eigenvalues --    4.39485   4.41805   4.43381   4.44019   4.45555
 Alpha virt. eigenvalues --    4.50736   4.52915   4.53835   4.65269   4.68279
 Alpha virt. eigenvalues --    4.72249   4.75404   4.80726   4.87831   4.90589
 Alpha virt. eigenvalues --    5.12595
          Condensed to atoms (all electrons):
 Mulliken atomic charges:
              1
     1  C   -0.677371
     2  C   -0.456497
     3  C    0.260076
     4  C    0.383345
     5  C   -0.368417
     6  C   -0.735923
     7  C   -0.669664
     8  C   -0.673316
     9  C   -0.461069
    10  O   -0.522086
    11  C   -0.793348
    12  O   -0.211187
    13  C   -0.874497
    14  C    1.150641
    15  C   -0.096050
    16  C   -0.554187
    17  C   -0.086029
    18  C   -0.376386
    19  C   -0.022355
    20  N   -0.010297
    21  C   -0.138960
    22  C    0.167090
    23  C   -0.781311
    24  C    1.240717
    25  C   -0.478621
    26  H    0.198922
    27  H    0.216988
    28  H    0.206108
    29  H    0.221728
    30  H    0.214764
    31  H    0.177629
    32  H    0.220558
    33  H    0.198573
    34  H    0.257634
    35  H    0.213965
    36  H    0.223703
    37  H    0.213761
    38  H    0.520286
    39  H    0.200303
    40  H    0.185526
    41  H    0.183154
    42  H    0.183280
    43  H    0.181314
    44  H    0.182813
    45  H    0.180020
    46  H    0.178663
    47  H    0.184964
    48  H    0.187154
    49  H    0.180184
    50  H    0.238968
    51  H    0.220814
    52  H    0.213925
 Sum of Mulliken charges=   0.00000
 Atomic charges with hydrogens summed into heavy atoms:
              1
     1  C   -0.261460
     2  C   -0.028661
     3  C    0.474840
     4  C    0.383345
     5  C   -0.368417
     6  C   -0.558294
     7  C   -0.669664
     8  C    0.003450
     9  C    0.190360
    10  O   -0.001800
    11  C   -0.793348
    12  O   -0.211187
    13  C   -0.488668
    14  C    1.150641
    15  C    0.087104
    16  C   -0.370907
    17  C    0.095284
    18  C   -0.193574
    19  C    0.157665
    20  N   -0.010297
    21  C    0.039704
    22  C    0.352053
    23  C   -0.594157
    24  C    1.420901
    25  C    0.195086
    26  H    0.000000
    27  H    0.000000
    28  H    0.000000
    29  H    0.000000
    30  H    0.000000
    31  H    0.000000
    32  H    0.000000
    33  H    0.000000
    34  H    0.000000
    35  H    0.000000
    36  H    0.000000
    37  H    0.000000
    38  H    0.000000
    39  H    0.000000
    40  H    0.000000
    41  H    0.000000
    42  H    0.000000
    43  H    0.000000
    44  H    0.000000
    45  H    0.000000
    46  H    0.000000
    47  H    0.000000
    48  H    0.000000
    49  H    0.000000
    50  H    0.000000
    51  H    0.000000
    52  H    0.000000
 Sum of Mulliken charges=   0.00000
 Electronic spatial extent (au):  <R**2>=  9092.4024
 Charge=     0.0000 electrons
 Dipole moment (field-independent basis, Debye):
    X=     2.7940    Y=    -2.6726    Z=    -0.0710  Tot=     3.8671
 Quadrupole moment (field-independent basis, Debye-Ang):
   XX=  -151.2488   YY=  -143.8402   ZZ=  -145.6273
   XY=     9.4561   XZ=    -4.1567   YZ=     2.3888
 Traceless Quadrupole moment (field-independent basis, Debye-Ang):
   XX=    -4.3434   YY=     3.0653   ZZ=     1.2781
   XY=     9.4561   XZ=    -4.1567   YZ=     2.3888
 Octapole moment (field-independent basis, Debye-Ang**2):
  XXX=    -4.8439  YYY=   -38.5888  ZZZ=   -61.1388  XYY=   -31.7438
  XXY=    -5.4505  XXZ=    -0.7063  XZZ=    25.0208  YZZ=     6.1992
  YYZ=     0.9903  XYZ=   -10.9597
 Hexadecapole moment (field-independent basis, Debye-Ang**3):
 XXXX= -4608.0770 YYYY= -2948.6495 ZZZZ= -4677.9553 XXXY=  -389.5159
 XXXZ=  1314.1615 YYYX=  -513.5661 YYYZ=  -394.2978 ZZZX=  1250.7020
 ZZZY=  -362.5262 XXYY= -1192.3560 XXZZ= -1582.4999 YYZZ= -1389.7226
 XXYZ=  -246.3494 YYXZ=   465.4143 ZZXY=  -173.6285
 N-N= 2.292695130739D+03 E-N=-7.044170658620D+03  KE= 1.049658543755D+03
 Calculating spin-rotation constants.
 Leave Link  601 at Thu Aug 26 07:28:57 2010, MaxMem=  671088640 cpu:     217.0
 (Enter /home/system/software/orac/g03_E.01/g03/l9999.exe)

 Test job not archived.
 1\1\GINC-ORAC\SP\RB3LYP\Gen\C22H27N1O2\KRZYSTYNIAK\26-Aug-2010\0\\#P G
 eom=AllCheck Guess=Read SCRF=Check GenChk RB3LYP/ChkBas NMR=ReadFC IOp
 (3/6=22)\\Camphor NMR shielding parameters.\\0,1\C,0,0.1647115972,0.42
 26613301,3.1758735747\C,0,-1.3891413653,0.4821523995,3.0644991374\C,0,
 -1.6200087256,1.154318904,1.6837180769\C,0,0.6538892787,1.0670592956,1
 .8478348972\C,0,-1.2715238626,0.1117946351,0.5924671275\C,0,0.30394602
 55,-0.0047392608,0.7605722973\C,0,-0.4358139523,2.1793513143,1.6192715
 353\C,0,-0.2711730638,2.9852330095,0.3121704969\C,0,-0.5146079862,3.23
 90513195,2.7413352955\O,0,-1.617753665,0.624082478,-0.6998568066\C,0,-
 2.0367772323,-1.2157747438,0.6922842078\O,0,0.9174024192,0.1834095756,
 -0.5202591522\C,0,2.0566959537,-0.6423766909,-0.8003292084\C,0,2.48316
 6948,-0.4152845979,-2.2286168723\C,0,1.8347730366,-1.0808098726,-3.278
 7341063\C,0,2.2112004368,-0.8561367791,-4.6044358354\C,0,3.2470855435,
 0.0372963014,-4.895277879\C,0,3.9018184781,0.7034746196,-3.8558749785\
 C,0,3.5196407756,0.4772679521,-2.5308657108\N,0,-3.3003827734,-1.13852
 73986,1.1409175591\C,0,-4.0535450842,-2.2437576775,1.1309689128\C,0,-3
 .6015897307,-3.4862946851,0.6815269669\C,0,-2.2902652678,-3.5703312419
 ,0.2134080271\C,0,-1.4998152938,-2.4216996654,0.2168927824\C,0,2.11445
 20574,1.5005359904,1.8694853521\H,0,0.5407315679,-0.6023191718,3.28904
 65429\H,0,0.5385926212,0.9881712282,4.0366654414\H,0,-1.8322119608,1.0
 79726483,3.866629236\H,0,-1.8536225623,-0.5034329113,3.1259472406\H,0,
 -2.6213341182,1.5669057907,1.5459151358\H,0,0.5868867242,-0.9985743032
 ,1.1282920846\H,0,-1.2067258644,3.5006165264,0.0653424539\H,0,0.502481
 7479,3.7522631084,0.4515429843\H,0,0.0137394517,2.3862091118,-0.548619
 7661\H,0,-0.6590881791,2.8356542702,3.7458309065\H,0,-1.3507268243,3.9
 206746313,2.5394241817\H,0,0.3973791458,3.8484079287,2.7593967948\H,0,
 -0.8526752647,0.4549132967,-1.281400745\H,0,2.874777423,-0.3956917652,
 -0.1121037388\H,0,1.7867699619,-1.6977220129,-0.6404742643\H,0,1.03023
 96984,-1.7789120891,-3.0562296867\H,0,1.7004528067,-1.3795401735,-5.40
 8701198\H,0,3.5436369881,0.2107853699,-5.9265902291\H,0,4.7088020674,1
 .3978651696,-4.0755093522\H,0,4.0293012364,0.9992968254,-1.7238257808\
 H,0,-5.0701980461,-2.1281561772,1.5042245133\H,0,-4.2567533939,-4.3526
 604895,0.6986146399\H,0,-1.8889964377,-4.5129290941,-0.1512920461\H,0,
 -0.4825220518,-2.4639885166,-0.1599348017\H,0,2.4275777785,1.919740939
 2,0.9069881858\H,0,2.277605899,2.2656113368,2.6381455866\H,0,2.7786575
 662,0.6588889116,2.1081358547\\Version=IA64L-G03RevE.01\HF=-1059.80115
 14\RMSD=9.346e-09\Thermal=0.\Dipole=1.0992639,-1.0514686,-0.0279218\PG
 =C01 [X(C22H27N1O2)]\\@


  THE LARGE PRINT GIVETH,
  AND THE SMALL PRINT TAKETH AWAY.

                     -- TOM WAITES
 Job cpu time:  2 days 23 hours 34 minutes  0.4 seconds.
 File lengths (MBytes):  RWF=   2964 Int=      0 D2E=      0 Chk=     57 Scr=      1
 Normal termination of Gaussian 03 at Thu Aug 26 07:28:58 2010.
