 Entering Link 1 = C:\G03W\l1.exe PID=      1224.
  
 Copyright (c) 1988,1990,1992,1993,1995,1998,2003, Gaussian, Inc.
                  All Rights Reserved.
  
 This is the Gaussian(R) 03 program.  It is based on the
 the Gaussian(R) 98 system (copyright 1998, Gaussian, Inc.),
 the Gaussian(R) 94 system (copyright 1995, Gaussian, Inc.),
 the Gaussian 92(TM) system (copyright 1992, Gaussian, Inc.),
 the Gaussian 90(TM) system (copyright 1990, Gaussian, Inc.),
 the Gaussian 88(TM) system (copyright 1988, Gaussian, Inc.),
 the Gaussian 86(TM) system (copyright 1986, Carnegie Mellon
 University), and the Gaussian 82(TM) system (copyright 1983,
 Carnegie Mellon University). Gaussian is a federally registered
 trademark of Gaussian, Inc.
  
 This software contains proprietary and confidential information,
 including trade secrets, belonging to Gaussian, Inc.
  
 This software is provided under written license and may be
 used, copied, transmitted, or stored only in accord with that
 written license.
  
 The following legend is applicable only to US Government
 contracts under DFARS:
  
                    RESTRICTED RIGHTS LEGEND
  
 Use, duplication or disclosure by the US Government is subject
 to restrictions as set forth in subparagraph (c)(1)(ii) of the
 Rights in Technical Data and Computer Software clause at DFARS
 252.227-7013.
  
 Gaussian, Inc.
 Carnegie Office Park, Building 6, Pittsburgh, PA 15106 USA
  
 The following legend is applicable only to US Government
 contracts under FAR:
  
                    RESTRICTED RIGHTS LEGEND
  
 Use, reproduction and disclosure by the US Government is subject
 to restrictions as set forth in subparagraph (c) of the
 Commercial Computer Software - Restricted Rights clause at FAR
 52.227-19.
  
 Gaussian, Inc.
 Carnegie Office Park, Building 6, Pittsburgh, PA 15106 USA
  
  
 ---------------------------------------------------------------
 Warning -- This program may not be used in any manner that
 competes with the business of Gaussian, Inc. or will provide
 assistance to any competitor of Gaussian, Inc.  The licensee
 of this program is prohibited from giving any competitor of
 Gaussian, Inc. access to this program.  By using this program,
 the user acknowledges that Gaussian, Inc. is engaged in the
 business of creating and licensing software in the field of
 computational chemistry and represents and warrants to the
 licensee that it is not a competitor of Gaussian, Inc. and that
 it will not use this program in any manner prohibited above.
 ---------------------------------------------------------------
  

 Cite this work as:
 Gaussian 03, Revision B.03,
 M. J. Frisch, G. W. Trucks, H. B. Schlegel, G. E. Scuseria, 
 M. A. Robb, J. R. Cheeseman, J. A. Montgomery, Jr., T. Vreven, 
 K. N. Kudin, J. C. Burant, J. M. Millam, S. S. Iyengar, J. Tomasi, 
 V. Barone, B. Mennucci, M. Cossi, G. Scalmani, N. Rega, 
 G. A. Petersson, H. Nakatsuji, M. Hada, M. Ehara, K. Toyota, 
 R. Fukuda, J. Hasegawa, M. Ishida, T. Nakajima, Y. Honda, O. Kitao, 
 H. Nakai, M. Klene, X. Li, J. E. Knox, H. P. Hratchian, J. B. Cross, 
 C. Adamo, J. Jaramillo, R. Gomperts, R. E. Stratmann, O. Yazyev, 
 A. J. Austin, R. Cammi, C. Pomelli, J. W. Ochterski, P. Y. Ayala, 
 K. Morokuma, G. A. Voth, P. Salvador, J. J. Dannenberg, 
 V. G. Zakrzewski, S. Dapprich, A. D. Daniels, M. C. Strain, 
 O. Farkas, D. K. Malick, A. D. Rabuck, K. Raghavachari, 
 J. B. Foresman, J. V. Ortiz, Q. Cui, A. G. Baboul, S. Clifford, 
 J. Cioslowski, B. B. Stefanov, G. Liu, A. Liashenko, P. Piskorz, 
 I. Komaromi, R. L. Martin, D. J. Fox, T. Keith, M. A. Al-Laham, 
 C. Y. Peng, A. Nanayakkara, M. Challacombe, P. M. W. Gill, 
 B. Johnson, W. Chen, M. W. Wong, C. Gonzalez, and J. A. Pople, 
 Gaussian, Inc., Pittsburgh PA, 2003.
 
 *********************************************
 Gaussian 03:  x86-Win32-G03RevB.03 4-May-2003
                  14-Nov-2005 
 *********************************************
 %Mem=400MB
 %NProc=1
 Will use up to    1 processors via shared memory.
 --------------------------------------------------
 #p nmr=giao rb3lyp/6-311g(2d,2p) geom=connectivity
 --------------------------------------------------
 1/38=1,57=2/1;
 2/17=6,18=5,40=1/2;
 3/5=4,6=6,7=202,11=2,16=1,25=1,30=1,74=-5/1,2,8,3;
 4/7=1/1;
 5/5=2,38=5/2;
 8/6=1,10=90,11=11/1;
 10/13=100,45=16/2;
 6/7=2,8=2,9=2,10=2,28=1/1;
 99/9=1/99;
 Leave Link    1 at Mon Nov 14 11:14:08 2005, MaxMem=   52428800 cpu:       1.0
 (Enter C:\G03W\l101.exe)
 --------------------------
 Fluorobenzene NMR, vacuum.
 --------------------------
 Symbolic Z-matrix:
 Charge =  0 Multiplicity = 1
 C
 C                    1    B1
 C                    2    B2       1    A1
 C                    3    B3       2    A2       1    D1       0
 C                    4    B4       3    A3       2    D2       0
 C                    5    B5       4    A4       3    D3       0
 H                    1    B6       6    A5       5    D4       0
 H                    2    B7       1    A6       6    D5       0
 H                    3    B8       2    A7       1    D6       0
 H                    5    B9       4    A8       3    D7       0
 H                    6    B10      5    A9       4    D8       0
 F                    4    B11      3    A10      2    D9       0
       Variables:
  B1                    1.39661                  
  B2                    1.39575                  
  B3                    1.39019                  
  B4                    1.39019                  
  B5                    1.39575                  
  B6                    1.0854                   
  B7                    1.08589                  
  B8                    1.08453                  
  B9                    1.08453                  
  B10                   1.08589                  
  B11                   1.35092                  
  A1                  120.45995                  
  A2                  118.48611                  
  A3                  122.2814                   
  A4                  118.48611                  
  A5                  120.08676                  
  A6                  120.11342                  
  A7                  121.96315                  
  A8                  119.55074                  
  A9                  119.42663                  
  A10                 118.8593                   
  D1                    0.                       
  D2                    0.                       
  D3                    0.                       
  D4                  180.                       
  D5                  180.                       
  D6                  180.                       
  D7                  180.                       
  D8                  180.                       
  D9                  180.                       
 
                    Isotopes and Nuclear Properties:

  Atom         1           2           3           4           5           6           7           8           9          10
 IAtWgt=          12          12          12          12          12          12           1           1           1           1
 AtmWgt=  12.0000000  12.0000000  12.0000000  12.0000000  12.0000000  12.0000000   1.0078250   1.0078250   1.0078250   1.0078250
 IAtSpn=           0           0           0           0           0           0           1           1           1           1
 AtZEff=   0.0000000   0.0000000   0.0000000   0.0000000   0.0000000   0.0000000   0.0000000   0.0000000   0.0000000   0.0000000
 AtQMom=   0.0000000   0.0000000   0.0000000   0.0000000   0.0000000   0.0000000   0.0000000   0.0000000   0.0000000   0.0000000
 AtGFac=   0.0000000   0.0000000   0.0000000   0.0000000   0.0000000   0.0000000   2.7928460   2.7928460   2.7928460   2.7928460

  Atom        11          12
 IAtWgt=           1          19
 AtmWgt=   1.0078250  18.9984033
 IAtSpn=           1           1
 AtZEff=   0.0000000   0.0000000
 AtQMom=   0.0000000   0.0000000
 AtGFac=   2.7928460   2.6288670
 Leave Link  101 at Mon Nov 14 11:14:09 2005, MaxMem=   52428800 cpu:       0.0
 (Enter C:\G03W\l202.exe)
                          Input orientation:                          
 ---------------------------------------------------------------------
 Center     Atomic     Atomic              Coordinates (Angstroms)
 Number     Number      Type              X           Y           Z
 ---------------------------------------------------------------------
    1          6             0        0.000000    0.000000    0.000000
    2          6             0        0.000000    0.000000    1.396615
    3          6             0        1.203112    0.000000    2.104169
    4          6             0        2.394060    0.000000    1.387049
    5          6             0        2.423840    0.000000   -0.002819
    6          6             0        1.211613    0.000000   -0.694641
    7          1             0       -0.939160    0.000000   -0.544122
    8          1             0       -0.939335    0.000000    1.941422
    9          1             0        1.231562    0.000000    3.188321
   10          1             0        3.378530    0.000000   -0.517368
   11          1             0        1.217051    0.000000   -1.780522
   12          9             0        3.562966    0.000000    2.064279
 ---------------------------------------------------------------------
                    Distance matrix (angstroms):
                    1          2          3          4          5
     1  C    0.000000
     2  C    1.396615   0.000000
     3  C    2.423841   1.395748   0.000000
     4  C    2.766844   2.394079   1.390187   0.000000
     5  C    2.423841   2.798823   2.435072   1.390187   0.000000
     6  C    1.396615   2.416890   2.798823   2.394079   1.395748
     7  H    1.085399   2.156034   3.406285   3.852243   3.406285
     8  H    2.156727   1.085894   2.148619   3.379179   3.884716
     9  H    3.417914   2.174157   1.084525   2.143825   3.406597
    10  H    3.417914   3.883014   3.406597   2.143825   1.084525
    11  H    2.156727   3.402265   3.884716   3.379179   2.148619
    12  F    4.117763   3.624983   2.360191   1.350919   2.360191
                    6          7          8          9         10
     6  C    0.000000
     7  H    2.156034   0.000000
     8  H    3.402265   2.485544   0.000000
     9  H    3.883014   4.317774   2.503508   0.000000
    10  H    2.174157   4.317774   4.968864   4.282710   0.000000
    11  H    1.085894   2.485544   4.301496   4.968864   2.503508
    12  F    3.624983   5.203162   4.503977   2.588226   2.588226
                   11         12
    11  H    0.000000
    12  F    4.503977   0.000000
 Stoichiometry    C6H5F
 Framework group  C2V[C2(HCCF),SGV(C4H4)]
 Deg. of freedom    11
 Full point group                 C2V     NOp   4
 Largest Abelian subgroup         C2V     NOp   4
 Largest concise Abelian subgroup C2      NOp   2
                         Standard orientation:                         
 ---------------------------------------------------------------------
 Center     Atomic     Atomic              Coordinates (Angstroms)
 Number     Number      Type              X           Y           Z
 ---------------------------------------------------------------------
    1          6             0        0.000000    0.000000   -1.835527
    2          6             0        0.000000   -1.208445   -1.135389
    3          6             0        0.000000   -1.217536    0.260329
    4          6             0        0.000000    0.000000    0.931317
    5          6             0        0.000000    1.217536    0.260329
    6          6             0        0.000000    1.208445   -1.135389
    7          1             0        0.000000    0.000000   -2.920926
    8          1             0        0.000000   -2.150748   -1.675047
    9          1             0        0.000000   -2.141355    0.828443
   10          1             0        0.000000    2.141355    0.828443
   11          1             0        0.000000    2.150748   -1.675047
   12          9             0        0.000000    0.000000    2.282236
 ---------------------------------------------------------------------
 Rotational constants (GHZ):      5.6661928      2.5588003      1.7627560
 Leave Link  202 at Mon Nov 14 11:14:11 2005, MaxMem=   52428800 cpu:       0.0
 (Enter C:\G03W\l301.exe)
 Standard basis: 6-311G(2d,2p) (5D, 7F)
 There are    84 symmetry adapted basis functions of A1  symmetry.
 There are    24 symmetry adapted basis functions of A2  symmetry.
 There are    35 symmetry adapted basis functions of B1  symmetry.
 There are    63 symmetry adapted basis functions of B2  symmetry.
 Integral buffers will be    262144 words long.
 Raffenetti 2 integral format.
 Two-electron integral symmetry is turned on.
   206 basis functions,   321 primitive gaussians,   220 cartesian basis functions
    25 alpha electrons       25 beta electrons
       nuclear repulsion energy       268.9417268045 Hartrees.
 IExCor= 402 DFT=T Ex=B+HF Corr=LYP ExCW=0 ScaHFX=  0.200000
 ScaDFX=  0.800000  0.720000  1.000000  0.810000
 IRadAn=      0 IRanWt=     -1 IRanGd=            0 ICorTp=0
 NAtoms=   12 NActive=   12 NUniq=    8 SFac= 2.76D+00 NAtFMM=   60 Big=F
 Leave Link  301 at Mon Nov 14 11:14:12 2005, MaxMem=   52428800 cpu:       0.0
 (Enter C:\G03W\l302.exe)
 NPDir=0 NMtPBC=     1 NCelOv=     1 NCel=       1 NClECP=     1 NCelD=      1
         NCelK=      1 NCelE2=     1 NClLst=     1 CellRange=     0.0.
 One-electron integrals computed using PRISM.
 One-electron integral symmetry used in STVInt
 NBasis=   206 RedAO= T  NBF=    84    24    35    63
 NBsUse=   206 1.00D-06 NBFU=    84    24    35    63
 Precomputing XC quadrature grid using
 IXCGrd= 2 IRadAn=           0 IRanWt=          -1 IRanGd=           0.
 NRdTot=     751 NPtTot=       95702 NUsed=       99107 NTot=       99123
 NSgBfM=   220   220   220   220.
 Leave Link  302 at Mon Nov 14 11:14:14 2005, MaxMem=   52428800 cpu:       1.0
 (Enter C:\G03W\l308.exe)
 Leave Link  308 at Mon Nov 14 11:14:16 2005, MaxMem=   52428800 cpu:       1.0
 (Enter C:\G03W\l303.exe)
 DipDrv:  MaxL=1.
 Leave Link  303 at Mon Nov 14 11:14:17 2005, MaxMem=   52428800 cpu:       0.0
 (Enter C:\G03W\l401.exe)
 Harris functional with IExCor=  402 diagonalized for initial guess.
 ExpMin= 1.03D-01 ExpMax= 1.14D+04 ExpMxC= 1.72D+03 IAcc=1 IRadAn=         1 AccDes= 1.00D-06
 HarFok:  IExCor= 402 AccDes= 1.00D-06 IRadAn=         1 IDoV=1
 ScaDFX=  1.000000  1.000000  1.000000  1.000000
 Harris En= -331.698228865976    
 Initial guess orbital symmetries:
       Occupied  (A1) (B2) (A1) (A1) (B2) (A1) (A1) (A1) (A1) (B2)
                 (A1) (B2) (A1) (A1) (B2) (A1) (A1) (B2) (B1) (A1)
                 (B2) (B1) (B2) (A2) (B1)
       Virtual   (A2) (B1) (A1) (B1) (B2) (A1) (A1) (B2) (A1) (A1)
                 (B2) (A1) (B2) (A1) (A1) (B2) (B1) (B2) (A1) (A1)
                 (B2) (A2) (B1) (A1) (B1) (B2) (A2) (B2) (A1) (B1)
                 (B2) (A1) (A1) (B1) (A1) (A2) (B2) (A1) (B2) (A2)
                 (A1) (B1) (A2) (A1) (B2) (A1) (B1) (B2) (A1) (B1)
                 (B2) (B2) (A2) (A1) (B1) (B1) (A2) (A1) (A1) (B2)
                 (A1) (B1) (B2) (B2) (A1) (A1) (B1) (A2) (B2) (A1)
                 (B2) (B1) (A1) (B2) (B2) (A1) (A2) (A1) (B2) (B1)
                 (A1) (B2) (A2) (B2) (A1) (A1) (B2) (A1) (B2) (A1)
                 (B2) (A1) (A1) (A2) (A1) (B1) (B1) (A1) (B2) (A1)
                 (A2) (B1) (A2) (B2) (B1) (A1) (B2) (B2) (B1) (A2)
                 (B1) (A1) (A1) (B2) (B2) (A1) (A1) (A2) (B2) (A1)
                 (B1) (A2) (B1) (A1) (B2) (B2) (A1) (A1) (B2) (A1)
                 (A2) (B1) (A2) (B1) (A1) (B2) (B1) (A1) (A2) (A1)
                 (B2) (B2) (A1) (B2) (B1) (A2) (B1) (A2) (A1) (B1)
                 (B2) (B2) (A1) (A1) (A1) (B2) (A1) (B2) (B2) (A1)
                 (A1) (A1) (B2) (B2) (A1) (B2) (B1) (B2) (A1) (A2)
                 (A1) (B1) (B2) (A1) (A1) (B2) (A1) (A1) (B2) (A1)
                 (A1)
 The electronic state of the initial guess is 1-A1.
 Leave Link  401 at Mon Nov 14 11:14:19 2005, MaxMem=   52428800 cpu:       1.0
 (Enter C:\G03W\l502.exe)
 Closed shell SCF:
 Requested convergence on RMS density matrix=1.00D-08 within 128 cycles.
 Requested convergence on MAX density matrix=1.00D-06.
 Requested convergence on             energy=1.00D-06.
 No special actions if energy rises.
 Using DIIS extrapolation, IDIIS=  1040.
 Integral symmetry usage will be decided dynamically.
        99106 words used for storage of precomputed grid.
 IEnd=    276111 IEndB=    276111 NGot=  52428800 MDV=  52217950
 LenX=  52217950
 Fock matrices will be formed incrementally for  20 cycles.
 Integral accuracy reduced to 1.0D-05 until final iterations.

 Cycle   1  Pass 0  IDiag  1:
 Petite list used in FoFDir.
 MinBra= 0 MaxBra= 2 Meth= 1.
 IRaf=       0 NMat=   1 IRICut=       1 DoRegI=T DoRafI=F ISym2E= 1 JSym2E=1.
 E= -331.365852227104    
 DIIS: error= 3.83D-02 at cycle   1 NSaved=   1.
 NSaved= 1 IEnMin= 1 EnMin= -331.365852227104     IErMin= 1 ErrMin= 3.83D-02
 ErrMax= 3.83D-02 EMaxC= 1.00D-01 BMatC= 2.25D-01 BMatP= 2.25D-01
 IDIUse=3 WtCom= 6.17D-01 WtEn= 3.83D-01
 Coeff-Com:  0.100D+01
 Coeff-En:   0.100D+01
 Coeff:      0.100D+01
 Gap=     0.220 Goal=   None    Shift=    0.000
 GapD=    0.220 DampG=1.000 DampE=0.500 DampFc=0.5000 IDamp=-1.
 Damping current iteration by 5.00D-01
 RMSDP=3.67D-03 MaxDP=1.16D-01              OVMax= 2.34D-01

 Cycle   2  Pass 0  IDiag  1:
 RMSU=  2.59D-02    CP:  9.73D-01
 E= -331.457772819753     Delta-E=       -0.091920592648 Rises=F Damp=T
 DIIS: error= 8.76D-03 at cycle   2 NSaved=   2.
 NSaved= 2 IEnMin= 2 EnMin= -331.457772819753     IErMin= 2 ErrMin= 8.76D-03
 ErrMax= 8.76D-03 EMaxC= 1.00D-01 BMatC= 1.26D-02 BMatP= 2.25D-01
 IDIUse=3 WtCom= 9.12D-01 WtEn= 8.76D-02
 Coeff-Com:  0.545D-01 0.945D+00
 Coeff-En:   0.153D+00 0.847D+00
 Coeff:      0.632D-01 0.937D+00
 Gap=     0.243 Goal=   None    Shift=    0.000
 RMSDP=1.19D-03 MaxDP=3.39D-02 DE=-9.19D-02 OVMax= 1.93D-01

 Cycle   3  Pass 0  IDiag  1:
 RMSU=  1.70D-02    CP:  9.78D-01  1.07D+00
 E= -331.571946447405     Delta-E=       -0.114173627653 Rises=F Damp=F
 DIIS: error= 9.55D-03 at cycle   3 NSaved=   3.
 NSaved= 3 IEnMin= 3 EnMin= -331.571946447405     IErMin= 2 ErrMin= 8.76D-03
 ErrMax= 9.55D-03 EMaxC= 1.00D-01 BMatC= 1.27D-02 BMatP= 1.26D-02
 IDIUse=3 WtCom= 9.05D-01 WtEn= 9.55D-02
 Coeff-Com: -0.184D-01 0.505D+00 0.514D+00
 Coeff-En:   0.000D+00 0.000D+00 0.100D+01
 Coeff:     -0.166D-01 0.457D+00 0.560D+00
 Gap=     0.235 Goal=   None    Shift=    0.000
 RMSDP=8.95D-04 MaxDP=3.52D-02 DE=-1.14D-01 OVMax= 7.23D-02

 Cycle   4  Pass 0  IDiag  1:
 RMSU=  7.06D-03    CP:  9.70D-01  9.68D-01  3.92D-01
 E= -331.581639739493     Delta-E=       -0.009693292088 Rises=F Damp=F
 DIIS: error= 5.36D-03 at cycle   4 NSaved=   4.
 NSaved= 4 IEnMin= 4 EnMin= -331.581639739493     IErMin= 4 ErrMin= 5.36D-03
 ErrMax= 5.36D-03 EMaxC= 1.00D-01 BMatC= 2.74D-03 BMatP= 1.26D-02
 IDIUse=3 WtCom= 9.46D-01 WtEn= 5.36D-02
 Coeff-Com: -0.188D-01 0.165D+00 0.347D+00 0.507D+00
 Coeff-En:   0.000D+00 0.000D+00 0.205D+00 0.795D+00
 Coeff:     -0.178D-01 0.156D+00 0.339D+00 0.522D+00
 Gap=     0.232 Goal=   None    Shift=    0.000
 RMSDP=2.82D-04 MaxDP=8.58D-03 DE=-9.69D-03 OVMax= 2.65D-02

 Cycle   5  Pass 0  IDiag  1:
 RMSU=  1.25D-03    CP:  9.72D-01  9.99D-01  5.57D-01  6.48D-01
 E= -331.584387881604     Delta-E=       -0.002748142110 Rises=F Damp=F
 DIIS: error= 1.02D-03 at cycle   5 NSaved=   5.
 NSaved= 5 IEnMin= 5 EnMin= -331.584387881604     IErMin= 5 ErrMin= 1.02D-03
 ErrMax= 1.02D-03 EMaxC= 1.00D-01 BMatC= 1.08D-04 BMatP= 2.74D-03
 IDIUse=3 WtCom= 9.90D-01 WtEn= 1.02D-02
 Coeff-Com: -0.858D-02 0.343D-01 0.114D+00 0.248D+00 0.612D+00
 Coeff-En:   0.000D+00 0.000D+00 0.000D+00 0.000D+00 0.100D+01
 Coeff:     -0.849D-02 0.340D-01 0.113D+00 0.246D+00 0.616D+00
 Gap=     0.231 Goal=   None    Shift=    0.000
 RMSDP=5.37D-05 MaxDP=1.26D-03 DE=-2.75D-03 OVMax= 5.80D-03

 Cycle   6  Pass 0  IDiag  1:
 RMSU=  5.01D-04    CP:  9.72D-01  1.01D+00  5.68D-01  6.43D-01  6.08D-01
 E= -331.584478233555     Delta-E=       -0.000090351951 Rises=F Damp=F
 DIIS: error= 3.77D-04 at cycle   6 NSaved=   6.
 NSaved= 6 IEnMin= 6 EnMin= -331.584478233555     IErMin= 6 ErrMin= 3.77D-04
 ErrMax= 3.77D-04 EMaxC= 1.00D-01 BMatC= 2.66D-05 BMatP= 1.08D-04
 IDIUse=3 WtCom= 9.96D-01 WtEn= 3.77D-03
 Coeff-Com: -0.256D-02 0.276D-02 0.282D-01 0.892D-01 0.384D+00 0.499D+00
 Coeff-En:   0.000D+00 0.000D+00 0.000D+00 0.000D+00 0.149D+00 0.851D+00
 Coeff:     -0.255D-02 0.275D-02 0.281D-01 0.889D-01 0.383D+00 0.500D+00
 Gap=     0.231 Goal=   None    Shift=    0.000
 RMSDP=2.32D-05 MaxDP=7.02D-04 DE=-9.04D-05 OVMax= 1.43D-03

 Cycle   7  Pass 0  IDiag  1:
 RMSU=  9.74D-05    CP:  9.72D-01  1.01D+00  5.62D-01  6.63D-01  7.31D-01
                    CP:  5.87D-01
 E= -331.584497889477     Delta-E=       -0.000019655922 Rises=F Damp=F
 DIIS: error= 4.18D-05 at cycle   7 NSaved=   7.
 NSaved= 7 IEnMin= 7 EnMin= -331.584497889477     IErMin= 7 ErrMin= 4.18D-05
 ErrMax= 4.18D-05 EMaxC= 1.00D-01 BMatC= 1.87D-07 BMatP= 2.66D-05
 IDIUse=1 WtCom= 1.00D+00 WtEn= 0.00D+00
 Coeff-Com: -0.264D-03-0.896D-03 0.393D-02 0.164D-01 0.875D-01 0.147D+00
 Coeff-Com:  0.747D+00
 Coeff:     -0.264D-03-0.896D-03 0.393D-02 0.164D-01 0.875D-01 0.147D+00
 Coeff:      0.747D+00
 Gap=     0.231 Goal=   None    Shift=    0.000
 RMSDP=2.40D-06 MaxDP=7.43D-05 DE=-1.97D-05 OVMax= 1.08D-04

 Initial convergence to 1.0D-05 achieved.  Increase integral accuracy.
 Cycle   8  Pass 1  IDiag  1:
 E= -331.584436264502     Delta-E=        0.000061624974 Rises=F Damp=F
 DIIS: error= 3.65D-05 at cycle   1 NSaved=   1.
 NSaved= 1 IEnMin= 1 EnMin= -331.584436264502     IErMin= 1 ErrMin= 3.65D-05
 ErrMax= 3.65D-05 EMaxC= 1.00D-01 BMatC= 2.82D-07 BMatP= 2.82D-07
 IDIUse=1 WtCom= 1.00D+00 WtEn= 0.00D+00
 Coeff-Com:  0.100D+01
 Coeff:      0.100D+01
 Gap=     0.231 Goal=   None    Shift=    0.000
 RMSDP=2.40D-06 MaxDP=7.43D-05 DE= 6.16D-05 OVMax= 1.83D-04

 Cycle   9  Pass 1  IDiag  1:
 RMSU=  1.26D-04    CP:  1.00D+00
 E= -331.584436452283     Delta-E=       -0.000000187781 Rises=F Damp=F
 DIIS: error= 3.14D-05 at cycle   2 NSaved=   2.
 NSaved= 2 IEnMin= 2 EnMin= -331.584436452283     IErMin= 2 ErrMin= 3.14D-05
 ErrMax= 3.14D-05 EMaxC= 1.00D-01 BMatC= 1.22D-07 BMatP= 2.82D-07
 IDIUse=1 WtCom= 1.00D+00 WtEn= 0.00D+00
 Coeff-Com:  0.356D+00 0.644D+00
 Coeff:      0.356D+00 0.644D+00
 Gap=     0.231 Goal=   None    Shift=    0.000
 RMSDP=1.58D-06 MaxDP=8.92D-05 DE=-1.88D-07 OVMax= 1.57D-04

 Cycle  10  Pass 1  IDiag  1:
 RMSU=  2.23D-05    CP:  1.00D+00  9.71D-01
 E= -331.584436520488     Delta-E=       -0.000000068205 Rises=F Damp=F
 DIIS: error= 1.89D-05 at cycle   3 NSaved=   3.
 NSaved= 3 IEnMin= 3 EnMin= -331.584436520488     IErMin= 3 ErrMin= 1.89D-05
 ErrMax= 1.89D-05 EMaxC= 1.00D-01 BMatC= 4.54D-08 BMatP= 1.22D-07
 IDIUse=1 WtCom= 1.00D+00 WtEn= 0.00D+00
 Coeff-Com: -0.200D-01 0.377D+00 0.643D+00
 Coeff:     -0.200D-01 0.377D+00 0.643D+00
 Gap=     0.231 Goal=   None    Shift=    0.000
 RMSDP=6.36D-07 MaxDP=4.03D-05 DE=-6.82D-08 OVMax= 5.63D-05

 Cycle  11  Pass 1  IDiag  1:
 RMSU=  3.95D-06    CP:  1.00D+00  1.00D+00  6.72D-01
 E= -331.584436557626     Delta-E=       -0.000000037137 Rises=F Damp=F
 DIIS: error= 1.79D-06 at cycle   4 NSaved=   4.
 NSaved= 4 IEnMin= 4 EnMin= -331.584436557626     IErMin= 4 ErrMin= 1.79D-06
 ErrMax= 1.79D-06 EMaxC= 1.00D-01 BMatC= 6.06D-10 BMatP= 4.54D-08
 IDIUse=1 WtCom= 1.00D+00 WtEn= 0.00D+00
 Coeff-Com: -0.133D-01 0.186D+00 0.324D+00 0.504D+00
 Coeff:     -0.133D-01 0.186D+00 0.324D+00 0.504D+00
 Gap=     0.231 Goal=   None    Shift=    0.000
 RMSDP=1.16D-07 MaxDP=2.64D-06 DE=-3.71D-08 OVMax= 1.22D-05

 Cycle  12  Pass 1  IDiag  1:
 RMSU=  1.26D-06    CP:  1.00D+00  9.98D-01  6.77D-01  7.42D-01
 E= -331.584436558051     Delta-E=       -0.000000000425 Rises=F Damp=F
 DIIS: error= 8.90D-07 at cycle   5 NSaved=   5.
 NSaved= 5 IEnMin= 5 EnMin= -331.584436558051     IErMin= 5 ErrMin= 8.90D-07
 ErrMax= 8.90D-07 EMaxC= 1.00D-01 BMatC= 7.73D-11 BMatP= 6.06D-10
 IDIUse=1 WtCom= 1.00D+00 WtEn= 0.00D+00
 Coeff-Com: -0.505D-02 0.631D-01 0.109D+00 0.284D+00 0.549D+00
 Coeff:     -0.505D-02 0.631D-01 0.109D+00 0.284D+00 0.549D+00
 Gap=     0.231 Goal=   None    Shift=    0.000
 RMSDP=3.50D-08 MaxDP=1.08D-06 DE=-4.25D-10 OVMax= 5.01D-06

 Cycle  13  Pass 1  IDiag  1:
 RMSU=  2.86D-07    CP:  1.00D+00  9.99D-01  6.75D-01  7.61D-01  6.86D-01
 E= -331.584436558127     Delta-E=       -0.000000000076 Rises=F Damp=F
 DIIS: error= 2.40D-07 at cycle   6 NSaved=   6.
 NSaved= 6 IEnMin= 6 EnMin= -331.584436558127     IErMin= 6 ErrMin= 2.40D-07
 ErrMax= 2.40D-07 EMaxC= 1.00D-01 BMatC= 5.92D-12 BMatP= 7.73D-11
 IDIUse=1 WtCom= 1.00D+00 WtEn= 0.00D+00
 Coeff-Com: -0.136D-02 0.152D-01 0.253D-01 0.876D-01 0.271D+00 0.602D+00
 Coeff:     -0.136D-02 0.152D-01 0.253D-01 0.876D-01 0.271D+00 0.602D+00
 Gap=     0.231 Goal=   None    Shift=    0.000
 RMSDP=1.62D-08 MaxDP=5.51D-07 DE=-7.59D-11 OVMax= 1.57D-06

 Cycle  14  Pass 1  IDiag  1:
 RMSU=  1.41D-07    CP:  1.00D+00  9.99D-01  6.75D-01  7.66D-01  6.62D-01
                    CP:  4.03D-01
 E= -331.584436558109     Delta-E=        0.000000000018 Rises=F Damp=F
 DIIS: error= 8.21D-08 at cycle   7 NSaved=   7.
 NSaved= 7 IEnMin= 6 EnMin= -331.584436558127     IErMin= 7 ErrMin= 8.21D-08
 ErrMax= 8.21D-08 EMaxC= 1.00D-01 BMatC= 9.89D-13 BMatP= 5.92D-12
 IDIUse=1 WtCom= 1.00D+00 WtEn= 0.00D+00
 Coeff-Com: -0.170D-03 0.109D-02 0.909D-03 0.139D-01 0.844D-01 0.346D+00
 Coeff-Com:  0.554D+00
 Coeff:     -0.170D-03 0.109D-02 0.909D-03 0.139D-01 0.844D-01 0.346D+00
 Coeff:      0.554D+00
 Gap=     0.231 Goal=   None    Shift=    0.000
 RMSDP=6.97D-09 MaxDP=2.68D-07 DE= 1.76D-11 OVMax= 4.88D-07

 SCF Done:  E(RB+HF-LYP) =  -331.584436558     A.U. after   14 cycles
             Convg  =    0.6968D-08             -V/T =  2.0039
             S**2   =   0.0000
 KE= 3.303083745468D+02 PE=-1.313980762233D+03 EE= 3.831462243240D+02
 Leave Link  502 at Mon Nov 14 11:18:11 2005, MaxMem=   52428800 cpu:     231.0
 (Enter C:\G03W\l801.exe)
 Range of M.O.s used for correlation:     1   206
 NBasis=   206 NAE=    25 NBE=    25 NFC=     0 NFV=     0
 NROrb=    206 NOA=    25 NOB=    25 NVA=   181 NVB=   181

 **** Warning!!: The largest alpha MO coefficient is  0.28519047D+02

 Leave Link  801 at Mon Nov 14 11:18:12 2005, MaxMem=   52428800 cpu:       0.0
 (Enter C:\G03W\l1002.exe)
 Minotr:  Closed-shell wavefunction.
          Direct CPHF calculation.
          Solving linear equations simultaneously.
          Differentiating once with respect to magnetic field using GIAOs.
          Electric field/nuclear overlap derivatives assumed to be zero.
          Using symmetry in CPHF.
          Requested convergence is 1.0D-08 RMS, and 1.0D-07 maximum.
          Secondary convergence is 1.0D-12 RMS, and 1.0D-12 maximum.
          NewPWx=T KeepS1=F KeepF1=F KeepIn=T MapXYZ=F.
          MDV=      52428800 using IRadAn=       2.
 Symmetry not used in FoFDir.
 MinBra= 0 MaxBra= 2 Meth= 1.
 IRaf=       0 NMat=   1 IRICut=       1 DoRegI=T DoRafI=F ISym2E= 0 JSym2E=0.
          There are   3 degrees of freedom in the 1st order CPHF.
     3 vectors were produced by pass  0.
 AX will form   3 AO Fock derivatives at one time.
     3 vectors were produced by pass  1.
     3 vectors were produced by pass  2.
     3 vectors were produced by pass  3.
     3 vectors were produced by pass  4.
     3 vectors were produced by pass  5.
 Inv2:  IOpt= 1 Iter= 1 AM= 3.63D-16 Conv= 1.00D-12.
 Inverted reduced A of dimension   18 with in-core refinement.
 Calculating GIAO nuclear magnetic shielding tensors.
 SCF GIAO Magnetic shielding tensor (ppm):
  1  C    Isotropic =    54.4722   Anisotropy =   179.9049
   XX=   174.4089   YX=     0.0000   ZX=     0.0000
   XY=     0.0000   YY=    44.2741   ZY=     0.0000
   XZ=     0.0000   YZ=     0.0000   ZZ=   -55.2663
   Eigenvalues:   -55.2663    44.2741   174.4089
  2  C    Isotropic =    47.7811   Anisotropy =   184.3905
   XX=   170.7081   YX=     0.0000   ZX=     0.0000
   XY=     0.0000   YY=   -37.6918   ZY=   -43.7905
   XZ=     0.0000   YZ=   -39.0138   ZZ=    10.3271
   Eigenvalues:   -61.5425    34.1777   170.7081
  3  C    Isotropic =    62.8125   Anisotropy =   151.7042
   XX=   163.9486   YX=     0.0000   ZX=     0.0000
   XY=     0.0000   YY=    -3.4425   ZY=    29.9399
   XZ=     0.0000   YZ=    37.3167   ZZ=    27.9315
   Eigenvalues:   -24.8627    49.3516   163.9486
  4  C    Isotropic =    10.4959   Anisotropy =   109.2829
   XX=    83.3512   YX=     0.0000   ZX=     0.0000
   XY=     0.0000   YY=    26.0463   ZY=     0.0000
   XZ=     0.0000   YZ=     0.0000   ZZ=   -77.9097
   Eigenvalues:   -77.9097    26.0463    83.3512
  5  C    Isotropic =    62.8125   Anisotropy =   151.7042
   XX=   163.9486   YX=     0.0000   ZX=     0.0000
   XY=     0.0000   YY=    -3.4425   ZY=   -29.9399
   XZ=     0.0000   YZ=   -37.3167   ZZ=    27.9315
   Eigenvalues:   -24.8627    49.3516   163.9486
  6  C    Isotropic =    47.7811   Anisotropy =   184.3905
   XX=   170.7081   YX=     0.0000   ZX=     0.0000
   XY=     0.0000   YY=   -37.6918   ZY=    43.7905
   XZ=     0.0000   YZ=    39.0138   ZZ=    10.3271
   Eigenvalues:   -61.5425    34.1777   170.7081
  7  H    Isotropic =    24.3679   Anisotropy =     4.5684
   XX=    21.3405   YX=     0.0000   ZX=     0.0000
   XY=     0.0000   YY=    27.4135   ZY=     0.0000
   XZ=     0.0000   YZ=     0.0000   ZZ=    24.3497
   Eigenvalues:    21.3405    24.3497    27.4135
  8  H    Isotropic =    24.1461   Anisotropy =     4.7712
   XX=    21.0364   YX=     0.0000   ZX=     0.0000
   XY=     0.0000   YY=    24.6975   ZY=    -1.2738
   XZ=     0.0000   YZ=    -1.2851   ZZ=    26.7043
   Eigenvalues:    21.0364    24.0749    27.3269
  9  H    Isotropic =    24.4955   Anisotropy =     4.9811
   XX=    21.4128   YX=     0.0000   ZX=     0.0000
   XY=     0.0000   YY=    25.4923   ZY=     1.5419
   XZ=     0.0000   YZ=     1.8462   ZZ=    26.5813
   Eigenvalues:    21.4128    24.2574    27.8162
 10  H    Isotropic =    24.4955   Anisotropy =     4.9811
   XX=    21.4128   YX=     0.0000   ZX=     0.0000
   XY=     0.0000   YY=    25.4923   ZY=    -1.5419
   XZ=     0.0000   YZ=    -1.8462   ZZ=    26.5813
   Eigenvalues:    21.4128    24.2574    27.8162
 11  H    Isotropic =    24.1461   Anisotropy =     4.7712
   XX=    21.0364   YX=     0.0000   ZX=     0.0000
   XY=     0.0000   YY=    24.6975   ZY=     1.2738
   XZ=     0.0000   YZ=     1.2851   ZZ=    26.7043
   Eigenvalues:    21.0364    24.0749    27.3269
 12  F    Isotropic =   282.1845   Anisotropy =    99.9161
   XX=   348.7953   YX=     0.0000   ZX=     0.0000
   XY=     0.0000   YY=   199.4248   ZY=     0.0000
   XZ=     0.0000   YZ=     0.0000   ZZ=   298.3336
   Eigenvalues:   199.4248   298.3336   348.7953
 End of Minotr Frequency-dependent properties file   721 does not exist.
 Leave Link 1002 at Mon Nov 14 11:29:41 2005, MaxMem=   52428800 cpu:     688.0
 (Enter C:\G03W\l601.exe)
 Copying SCF densities to generalized density rwf, ISCF=0 IROHF=0.

 **********************************************************************

            Population analysis using the SCF density.

 **********************************************************************

 Orbital symmetries:
       Occupied  (A1) (A1) (B2) (A1) (B2) (A1) (A1) (A1) (A1) (B2)
                 (A1) (B2) (A1) (A1) (A1) (B2) (B1) (A1) (B2) (B2)
                 (A1) (B1) (B2) (A2) (B1)
       Virtual   (A2) (B1) (A1) (B2) (A1) (B2) (A1) (A1) (B1) (A1)
                 (B2) (A1) (B2) (A1) (B2) (B1) (A1) (B2) (A1) (A1)
                 (A2) (B1) (B2) (A1) (B1) (A2) (B2) (A1) (B1) (B2)
                 (A1) (B2) (A1) (B1) (A1) (B2) (A2) (A1) (B2) (A2)
                 (A1) (B1) (A2) (B2) (A1) (A1) (B1) (B2) (A1) (B1)
                 (B2) (B2) (A1) (A2) (B1) (B1) (A2) (A1) (B2) (A1)
                 (A1) (B1) (B2) (A1) (B2) (A1) (B1) (A2) (B2) (A1)
                 (B2) (B1) (B2) (A1) (B2) (A2) (A1) (A1) (B2) (B1)
                 (A2) (A1) (B2) (B2) (A1) (A1) (B2) (A1) (B2) (A1)
                 (B2) (A1) (A1) (A2) (A1) (B1) (A1) (B1) (B2) (A1)
                 (A2) (B1) (B2) (A2) (B1) (A1) (B2) (B2) (B1) (A2)
                 (B1) (A1) (A1) (B2) (A1) (B2) (A1) (A2) (B2) (A1)
                 (B1) (A2) (A1) (B1) (B2) (B2) (A1) (A1) (B2) (A2)
                 (B1) (A2) (A1) (B1) (B2) (A1) (A1) (B1) (A2) (A1)
                 (B2) (B2) (A1) (B2) (B1) (A2) (B1) (A2) (B1) (A1)
                 (B2) (A1) (B2) (A1) (A1) (B2) (A1) (B2) (A1) (B2)
                 (A1) (B2) (A1) (B2) (A1) (B2) (B1) (B2) (A1) (A2)
                 (A1) (B1) (B2) (A1) (A1) (B2) (A1) (A1) (A1) (B2)
                 (A1)
 The electronic state is 1-A1.
 Alpha  occ. eigenvalues --  -24.67992 -10.25960 -10.18589 -10.18588 -10.18269
 Alpha  occ. eigenvalues --  -10.18267 -10.17902  -1.22271  -0.86652  -0.76206
 Alpha  occ. eigenvalues --   -0.75271  -0.62832  -0.61700  -0.54997  -0.50165
 Alpha  occ. eigenvalues --   -0.49196  -0.46686  -0.45198  -0.43772  -0.40282
 Alpha  occ. eigenvalues --   -0.37847  -0.36739  -0.35257  -0.26753  -0.25254
 Alpha virt. eigenvalues --   -0.02141  -0.00915   0.03950   0.06941   0.08272
 Alpha virt. eigenvalues --    0.10774   0.11337   0.14065   0.14286   0.22665
 Alpha virt. eigenvalues --    0.25652   0.26458   0.28668   0.33483   0.35473
 Alpha virt. eigenvalues --    0.36194   0.36377   0.38935   0.39270   0.39525
 Alpha virt. eigenvalues --    0.40102   0.41002   0.41684   0.44532   0.45023
 Alpha virt. eigenvalues --    0.49836   0.49956   0.51268   0.51467   0.52118
 Alpha virt. eigenvalues --    0.53553   0.56395   0.56948   0.57455   0.61943
 Alpha virt. eigenvalues --    0.62611   0.63091   0.63881   0.65080   0.66332
 Alpha virt. eigenvalues --    0.69731   0.69773   0.74638   0.75176   0.76615
 Alpha virt. eigenvalues --    0.79444   0.81323   0.82049   0.86849   0.93766
 Alpha virt. eigenvalues --    0.95825   0.98950   0.99586   1.00512   1.01705
 Alpha virt. eigenvalues --    1.03925   1.06612   1.09816   1.10800   1.11074
 Alpha virt. eigenvalues --    1.12386   1.13900   1.15552   1.16462   1.19553
 Alpha virt. eigenvalues --    1.23029   1.23739   1.25192   1.25876   1.27240
 Alpha virt. eigenvalues --    1.28819   1.30136   1.30490   1.31800   1.34551
 Alpha virt. eigenvalues --    1.35847   1.36356   1.37553   1.45369   1.50819
 Alpha virt. eigenvalues --    1.54683   1.57877   1.58727   1.62870   1.65999
 Alpha virt. eigenvalues --    1.73215   1.75310   1.82091   1.88553   1.96944
 Alpha virt. eigenvalues --    1.97635   2.00987   2.01622   2.11782   2.31943
 Alpha virt. eigenvalues --    2.34659   2.53533   2.54145   2.57736   2.62411
 Alpha virt. eigenvalues --    2.73794   2.75704   2.78322   2.79812   2.80247
 Alpha virt. eigenvalues --    2.82734   2.93778   2.98111   3.03283   3.04626
 Alpha virt. eigenvalues --    3.12043   3.12881   3.14795   3.23288   3.24920
 Alpha virt. eigenvalues --    3.26250   3.27778   3.28516   3.29774   3.29969
 Alpha virt. eigenvalues --    3.30044   3.31301   3.33339   3.34006   3.36006
 Alpha virt. eigenvalues --    3.40850   3.43507   3.47769   3.49840   3.52689
 Alpha virt. eigenvalues --    3.53151   3.54774   3.55046   3.55663   3.59484
 Alpha virt. eigenvalues --    3.59548   3.64620   3.65043   3.73939   3.76802
 Alpha virt. eigenvalues --    3.78325   3.79867   3.83525   3.86371   3.91564
 Alpha virt. eigenvalues --    3.96849   3.98401   3.99534   4.01912   4.03161
 Alpha virt. eigenvalues --    4.05132   4.18298   4.18563   4.23313   4.30403
 Alpha virt. eigenvalues --    4.31711   4.37675   4.37912   4.60221   4.60506
 Alpha virt. eigenvalues --    4.79312   5.00612   5.01098   5.01600   5.12346
 Alpha virt. eigenvalues --    5.26432   6.11341   6.34985   6.63409   9.09012
 Alpha virt. eigenvalues --    9.16024   9.27628   9.52061   9.69388  23.52364
 Alpha virt. eigenvalues --   23.98845  23.98859  24.07546  24.09044  24.09890
 Alpha virt. eigenvalues --   66.81379
          Condensed to atoms (all electrons):
              1          2          3          4          5          6
     1  C    4.734650   0.524528  -0.029771  -0.037264  -0.029771   0.524528
     2  C    0.524528   4.830765   0.397466   0.005211  -0.030467  -0.020116
     3  C   -0.029771   0.397466   4.948771   0.494625  -0.039746  -0.030467
     4  C   -0.037264   0.005211   0.494625   4.451053   0.494625   0.005211
     5  C   -0.029771  -0.030467  -0.039746   0.494625   4.948771   0.397466
     6  C    0.524528  -0.020116  -0.030467   0.005211   0.397466   4.830765
     7  H    0.426139  -0.033840   0.003751   0.000510   0.003751  -0.033840
     8  H   -0.033992   0.417181  -0.024907   0.002030  -0.000253   0.004326
     9  H    0.005227  -0.031733   0.414211  -0.033489   0.007753  -0.001529
    10  H    0.005227  -0.001529   0.007753  -0.033489   0.414211  -0.031733
    11  H   -0.033992   0.004326  -0.000253   0.002030  -0.024907   0.417181
    12  F   -0.000107   0.006504  -0.040076   0.271508  -0.040076   0.006504
              7          8          9         10         11         12
     1  C    0.426139  -0.033992   0.005227   0.005227  -0.033992  -0.000107
     2  C   -0.033840   0.417181  -0.031733  -0.001529   0.004326   0.006504
     3  C    0.003751  -0.024907   0.414211   0.007753  -0.000253  -0.040076
     4  C    0.000510   0.002030  -0.033489  -0.033489   0.002030   0.271508
     5  C    0.003751  -0.000253   0.007753   0.414211  -0.024907  -0.040076
     6  C   -0.033840   0.004326  -0.001529  -0.031733   0.417181   0.006504
     7  H    0.583945  -0.005320  -0.000295  -0.000295  -0.005320   0.000008
     8  H   -0.005320   0.583686  -0.006613   0.000101  -0.000413  -0.000098
     9  H   -0.000295  -0.006613   0.578418  -0.000414   0.000101   0.004445
    10  H   -0.000295   0.000101  -0.000414   0.578418  -0.006613   0.004445
    11  H   -0.005320  -0.000413   0.000101  -0.006613   0.583686  -0.000098
    12  F    0.000008  -0.000098   0.004445   0.004445  -0.000098   9.086948
 Mulliken atomic charges:
              1
     1  C   -0.055403
     2  C   -0.068298
     3  C   -0.101359
     4  C    0.377436
     5  C   -0.101359
     6  C   -0.068298
     7  H    0.060807
     8  H    0.064271
     9  H    0.063919
    10  H    0.063919
    11  H    0.064271
    12  F   -0.299907
 Sum of Mulliken charges=   0.00000
 Atomic charges with hydrogens summed into heavy atoms:
              1
     1  C    0.005404
     2  C   -0.004027
     3  C   -0.037439
     4  C    0.377436
     5  C   -0.037439
     6  C   -0.004027
     7  H    0.000000
     8  H    0.000000
     9  H    0.000000
    10  H    0.000000
    11  H    0.000000
    12  F   -0.299907
 Sum of Mulliken charges=   0.00000
 Electronic spatial extent (au):  <R**2>=   650.8352
 Charge=     0.0000 electrons
 Dipole moment (field-independent basis, Debye):
    X=     0.0000    Y=     0.0000    Z=    -1.4098  Tot=     1.4098
 Quadrupole moment (field-independent basis, Debye-Ang):
   XX=   -42.7668   YY=   -34.5448   ZZ=   -39.9938
   XY=     0.0000   XZ=     0.0000   YZ=     0.0000
 Traceless Quadrupole moment (field-independent basis, Debye-Ang):
   XX=    -3.6650   YY=     4.5570   ZZ=    -0.8920
   XY=     0.0000   XZ=     0.0000   YZ=     0.0000
 Octapole moment (field-independent basis, Debye-Ang**2):
  XXX=     0.0000  YYY=     0.0000  ZZZ=     1.8909  XYY=     0.0000
  XXY=     0.0000  XXZ=     8.7970  XZZ=     0.0000  YZZ=     0.0000
  YYZ=     5.0716  XYZ=     0.0000
 Hexadecapole moment (field-independent basis, Debye-Ang**3):
 XXXX=   -44.6856 YYYY=  -269.2248 ZZZZ=  -466.7267 XXXY=     0.0000
 XXXZ=     0.0000 YYYX=     0.0000 YYYZ=     0.0000 ZZZX=     0.0000
 ZZZY=     0.0000 XXYY=   -62.8287 XXZZ=   -90.7933 YYZZ=  -117.1346
 XXYZ=     0.0000 YYXZ=     0.0000 ZZXY=     0.0000
 N-N= 2.689417268045D+02 E-N=-1.313980754971D+03  KE= 3.303083745468D+02
 Symmetry A1   KE= 2.325152064389D+02
 Symmetry A2   KE= 2.260473436903D+00
 Symmetry B1   KE= 1.064232883323D+01
 Symmetry B2   KE= 8.489036583782D+01
 Calculating spin-rotation constants.
 Leave Link  601 at Mon Nov 14 11:29:50 2005, MaxMem=   52428800 cpu:       8.0
 (Enter C:\G03W\l9999.exe)
 1|1|UNPC-UNK|SP|RB3LYP|6-311G(2d,2p)|C6H5F1|PCUSER|14-Nov-2005|0||#P N
 MR=GIAO RB3LYP/6-311G(2D,2P) GEOM=CONNECTIVITY||Fluorobenzene NMR, vac
 uum.||0,1|C|C,1,1.39661467|C,2,1.39574761,1,120.45994936|C,3,1.3901866
 1,2,118.48611,1,0.,0|C,4,1.39018661,3,122.28139919,2,0.,0|C,5,1.395747
 61,4,118.48611,3,0.,0|H,1,1.085399,6,120.08675895,5,180.,0|H,2,1.08589
 396,1,120.11342495,6,180.,0|H,3,1.08452527,2,121.96314524,1,180.,0|H,5
 ,1.08452527,4,119.55074476,3,180.,0|H,6,1.08589396,5,119.42662569,4,18
 0.,0|F,4,1.350919,3,118.85930041,2,180.,0||Version=x86-Win32-G03RevB.0
 3|State=1-A1|HF=-331.5844366|RMSD=6.968e-009|Dipole=-0.4799214,0.,-0.2
 780525|PG=C02V [C2(H1C1C1F1),SGV(C4H4)]||@


 IT'S WHAT YOU LEARN AFTER YOU KNOW IT ALL
 THAT COUNTS.
 Job cpu time:  0 days  0 hours 15 minutes 44.0 seconds.
 File lengths (MBytes):  RWF=     35 Int=      0 D2E=      0 Chk=      9 Scr=      1
 Normal termination of Gaussian 03 at Mon Nov 14 11:29:51 2005.
